# vtk DataFile Version 2.0
HASEonGPU converted Tet4 laserPumpCladding input
ASCII
DATASET UNSTRUCTURED_GRID
POINTS 4210 double
3 0 0
1.8369701987210297e-16 3 0
-3 3.6739403974420594e-16 0
-5.5109105961630896e-16 -3 0
3 -7.3478807948841188e-16 0
1.5 0 0
1.4881720519717168 0.18799985034645639 0
1.4528747416929466 0.37303483074728216 0
1.3946647288323772 0.55218682902701688 0
1.3144600200657954 0.72263051115257304 0
1.2135254915624212 0.88167787843870971 0
1.0934529411321172 1.0268206588930329 0
0.9561359846230344 1.155769864163684 0
0.80374019246849482 1.2664918882530225 0
0.63866893734760899 1.3572405786990294 0
0.46352549156242118 1.4265847744427302 0
0.28107197187858712 1.4734308760930328 0
0.09418577929397029 1.4970400926424072 0
-0.094185779293970096 1.4970400926424072 0
-0.28107197187858723 1.4734308760930328 0
-0.46352549156242101 1.4265847744427305 0
-0.6386689373476091 1.3572405786990291 0
-0.80374019246849526 1.2664918882530225 0
-0.95613598462303462 1.155769864163684 0
-1.093452941132117 1.0268206588930333 0
-1.213525491562421 0.88167787843870982 0
-1.3144600200657952 0.72263051115257337 0
-1.394664728832377 0.55218682902701721 0
-1.4528747416929466 0.37303483074728222 0
-1.4881720519717168 0.1879998503464568 0
-1.5 1.8369701987210297e-16 0
-1.4881720519717168 -0.18799985034645644 0
-1.4528747416929466 -0.3730348307472825 0
-1.3946647288323768 -0.55218682902701743 0
-1.3144600200657957 -0.72263051115257249 0
-1.2135254915624212 -0.88167787843870959 0
-1.0934529411321172 -1.0268206588930331 0
-0.95613598462303429 -1.155769864163684 0
-0.80374019246849449 -1.2664918882530229 0
-0.63866893734760821 -1.3572405786990296 0
-0.46352549156242134 -1.4265847744427302 0
-0.28107197187858696 -1.473430876093033 0
-0.094185779293969818 -1.4970400926424072 0
0.094185779293969249 -1.4970400926424072 0
0.2810719718785864 -1.473430876093033 0
0.46352549156242084 -1.4265847744427305 0
0.63866893734760777 -1.3572405786990298 0
0.80374019246849393 -1.2664918882530234 0
0.95613598462303395 -1.1557698641636844 0
1.0934529411321168 -1.0268206588930333 0
1.213525491562421 -0.88167787843871004 0
1.3144600200657954 -0.72263051115257304 0
1.3946647288323768 -0.55218682902701799 0
1.4528747416929464 -0.37303483074728305 0
1.4881720519717168 -0.18799985034645697 0
1.5 -3.6739403974420594e-16 0
-2.9092010630146201 0.73249515884859218 0
-2.5948422592105751 -1.5055874762582662 0
-2.638638710324535 1.4274402933464378 0
-2.8978884492196491 -0.77604290239438267 0
-2.4227068937481744 -0.29854480912972997 0
-2.2388459313433096 0.80558197238431417 0
-2.1185483491509167 -2.1240887177939527 0
-2.2762777337060913 -0.88614019046409476 0
-1.8284026793996355 -0.30461628664767487 0
-2.3539448847492319 0.28920205505325541 0
-1.925117162062326 0.23371179250294496 0
-1.786888953758706 0.82090200043143891 0
-2.029363796594148 -0.52189541073442902 0
-1.629488009228552 -0.35615711274498935 0
-2.0803231070301726 -0.083492539902757262 0
-1.6755721404685429 0.20772020998593044 0
-1.9165499560764339 0.52102211743306048 0
-2.0300899814367166 1.266754822127965 0
-2.1964213531716528 2.0434610958106756 0
-1.8561330767803648 -0.91743606522273857 0
-1.589270957140853 -0.86153152545695189 0
-1.7343328997797542 -0.60722692470395634 0
-1.5664914951235849 -0.5228335341948539 0
-1.6477868617856892 -0.15715135467004851 0
-1.6437460384134761 0.051158601521915585 0
-1.8041893772262778 -0.023743408280853934 0
-1.6547987547448935 0.37371238924561423 0
-1.6180315114053807 0.5510125353778732 0
-1.5268798570482995 0.69238319934821035 0
-1.6388239287711379 1.0850038388965961 0
-1.6875760156370767 1.5197012524492868 0
-1.5593336036955092 2.5629043564563472 0
-1.4996988441497003 -2.5982500727471542 0
-1.9802297060357401 -1.3698089453659321 0
-1.5762166081711686 -1.1573249426138803 0
-1.4007627594884051 -0.9085974167883949 0
-1.4989064337745857 -0.70379764388621613 0
-1.2625610835544718 -0.40520734113723156 0
-1.325228904412973 -0.23859163392566166 0
-1.2943948053394074 -0.073335637986973831 0
-1.3427827258590763 0.089656682569852653 0
-1.2741279578802678 0.24872482112065408 0
-1.2821538783158424 0.40953240146002873 0
-1.2027516339180548 0.57198522631513882 0
-1.4812954882130449 0.84895039853631105 0
-1.3733470370259659 0.98381510339478051 0
-1.4063508735593937 1.2529923318366569 0
-1.5224835441189251 1.9183802856671823 0
-1.3734112884475305 -1.963044106645158 0
-1.6217056230882707 -1.606012273936521 0
-1.3394498385626938 -1.328073048933422 0
-1.163148119633501 -1.1842337395038438 0
-1.3070589534128838 -1.0649283111320864 0
-1.1113388727093745 -0.71495559522356988 0
-1.1950442737690117 -0.56412598609081921 0
-1.0750534249115704 -0.39661900603232197 0
-1.153617374305147 -0.2288795158674283 0
-1.0803890641793377 -0.068198157584990579 0
-1.1609975453446943 0.086397503654689151 0
-1.0640688638417983 0.24408334498195666 0
-1.1116968993602518 0.40207362957839665 0
-1.0126556824674025 0.57215597613873848 0
-1.1166879670667695 0.72548496557727571 0
-1.0215992045429356 0.87877978378487465 0
-1.2449316405281541 1.0936968153748481 0
-1.2528829909072468 1.4890660584210109 0
-1.0178460593377705 2.2349390410799095 0
-1.1799297904464485 -1.5674061482718298 0
-1.053995649329464 -1.3194350766749008 0
-0.90549945501362272 -0.99679158350665542 0
-1.0121778523560141 -0.85565639728473197 0
-0.90058892009910052 -0.70847393739939535 0
-0.99455595253628404 -0.55670121090994473 0
-0.88085370431514531 -0.3937277336806414 0
-0.96679865129551756 -0.22917106497450077 0
-0.87473932892886563 -0.067133388022849017 0
-0.96287522754762223 0.089737035928369666 0
-0.86096791778617987 0.25359720820182052 0
-0.9291275978649064 0.41075915724199275 0
-0.82710198310864169 0.5901914883258691 0
-0.91926261194328718 0.74398581909229744 0
-0.87753040470528454 0.9586157336022012 0
-1.1390787781582592 1.2385909081969002 0
-0.99471085676146187 1.3503173090428844 0
-1.1194912599855567 1.7930890994062907 0
-0.80032557569043294 2.8912763624767202 0
-0.76650813498443493 -2.9004250157097853 0
-0.92596498484480139 -2.2420169147785218 0
-0.93065761143326786 -1.7641322268359176 0
-0.76167743586714198 -1.5103902682172938 0
-0.91978973580081902 -1.4439707153547374 0
-0.7471457695070477 -1.0596134169643181 0
-0.79988562703292954 -0.86114847093426927 0
-0.69545438153746431 -0.71156615669761192 0
-0.79144204845223087 -0.55273830651967704 0
-0.68372981412882372 -0.39127236548686906 0
-0.77389003567853221 -0.22851799349297833 0
-0.6758485354502406 -0.062509188282699774 0
-0.76578475197800677 0.097233351211423291 0
-0.66591199087864228 0.26899409487517151 0
-0.74487864822602201 0.4295023019591197 0
-0.6541142583383317 0.62066143154172349 0
-0.75580089750440516 0.79138852320325104 0
-0.67091592346472706 0.95464566450371424 0
-0.77487765708040479 1.0995834017989343 0
-0.79869857593483573 1.4387056306916721 0
-0.93665607595392431 1.5546038975791305 0
-0.77864996168239464 1.8161318328826686 0
-0.61353808585111624 -1.9912892840373866 0
-0.62323154969557781 -1.7089059084720191 0
-0.57476832037177294 -1.5368146313824718 0
-0.63793544677181879 -1.1830000433905992 0
-0.52751653788231179 -1.0426931925797678 0
-0.62017295488032353 -0.89424936878366901 0
-0.50669515487228767 -0.72846919149549239 0
-0.59154985920645597 -0.55404564522811806 0
-0.48878995257535085 -0.38914272132141131 0
-0.58006441956412302 -0.22480175810960359 0
-0.48164302349733218 -0.055593658233160488 0
-0.57293926956204289 0.10779851958094987 0
-0.47652327682058099 0.28339409608037769 0
-0.56402551364572673 0.45082301866678548 0
-0.46762066634198834 0.6261494430069231 0
-0.56497407774447306 0.7934328578233576 0
-0.48961916673243916 0.97691456553315903 0
-0.60618811689263163 1.1497232480528154 0
-0.4742094490475352 1.2590003451647966 0
-0.66463891755205384 1.5629920717612207 0
-0.36131365857486558 -2.3511329639786838 0
-0.34793084410212505 -1.8626017024234176 0
-0.39289751616072954 -1.6245634669036431 0
-0.31463216144960332 -1.2915179593386732 0
-0.46642659870548159 -1.2272171454012473 0
-0.33491084033783763 -1.0670527789485813 0
-0.41631791924388989 -0.89039663954563619 0
-0.31181964526899975 -0.7222331744974414 0
-0.40114756376878036 -0.55847270264344362 0
-0.29780899185629278 -0.38891562830600757 0
-0.38777029034256993 -0.22078898707456487 0
-0.29014568668542778 -0.050365931330651592 0
-0.3829147870845242 0.11678225684600209 0
-0.28603439902696814 0.28874089935748026 0
-0.37652314225038691 0.45723474206909159 0
-0.28285935985123906 0.634056233724409 0
-0.3812739593352989 0.80596000288030079 0
-0.28432579640457945 0.96717187850060327 0
-0.38401137154317538 1.1193412798190607 0
-0.28929041088106155 1.2996653185743416 0
-0.48649810464939913 1.5786338372237843 0
-0.50956987991026059 1.802700551049921 0
-0.10156301702722029 -1.9776698354740183 0
-0.18850645867119584 -1.6711101166352897 0
-0.12491842961146801 -1.333492551777415 0
-0.19531088201376173 -1.165235070178507 0
-0.11396487659381563 -1.0169604998755526 0
-0.22711736892693501 -0.88992552182652396 0
-0.11845331805017587 -0.72069302201854535 0
-0.20739099047019754 -0.55455554346669034 0
-0.10550087553679044 -0.38644865819451252 0
-0.19736124887727366 -0.21878420354912947 0
-0.099429935623401258 -0.048143548431330535 0
-0.19246831389354235 0.12043663192685652 0
-0.096305895709434486 0.29164933055122599 0
-0.18946837129989327 0.46219349980575375 0
-0.093646175437730308 0.632792208494797 0
-0.18750683698080658 0.80307016294956868 0
-0.093180419620707694 0.97837378048707846 0
-0.18910737309012304 1.1435649848320233 0
-0.099982572689058719 1.3266515631625531 0
-0.32585079229692676 1.6531691556466916 0
-0.25725985857269978 1.9385028597941227 0
-0.58126105676834439 2.18968912022916 0
0.72890636030000433 -2.9101023143834968 0
0.13870214135764744 -2.3883760262207527 0
0.0063019320178563437 -1.6943844456388202 0
0.066747659465658471 -1.3392247008584173 0
-0.0043774832355384184 -1.1757340807926229 0
0.091920900400353861 -1.0209382459652763 0
-0.01412700401732131 -0.86652712359602013 0
0.086764461817082472 -0.71218318669596081 0
[...]
POINT_DATA 4210
SCALARS betaCells double 1
LOOKUP_TABLE default
2.6514432564791492e-05
2.678710548340801e-05
2.6021735531697032e-05
2.6065007377344367e-05
0.0
0.013275950532219364
0.013358458156796142
0.013362140106264611
0.01336163116132524
0.013357811713323599
0.01336039562578287
0.013360739268203983
0.013359524874009866
0.013357254607281328
0.01335980508273387
0.013360896901127694
0.013356703096078209
0.013362258729093163
0.013362637125605384
0.013360149618607639
0.013358013236041664
0.013360459405724476
0.013360717127331952
0.013358307918980808
0.013361062785496217
0.01335937504411425
0.013359547693928425
0.01336590999903155
0.01335981693592225
0.013359818483973027
0.013360533481719216
0.013361477623102106
0.013361690614827434
0.013361545908540445
0.013358124304921469
0.013361513327467028
0.013360363563666194
0.013357936548066433
0.013361852764751748
0.013359671597737984
0.013359409774047683
0.013359345102069462
0.0133620006026526
0.013359302531157038
0.013358286399850448
0.013359865097314943
0.013361525304550774
0.013362811244527302
0.013366886532324679
0.013359119979646655
0.01336046609234523
0.013356610909118173
0.013358928842634277
0.013357336042849475
0.013356582719422302
0.013357460765612995
2.6247596379856728e-05
2.6338741880939918e-05
2.5613984989530877e-05
2.628081748146147e-05
3.598757492485868e-05
3.771136990990038e-05
2.6446201594553053e-05
3.500913942369385e-05
5.72988201774703e-05
3.723361335830709e-05
5.279014211739374e-05
5.1549472883552924e-05
4.441885530735448e-05
7.402774117956916e-05
4.656766417370165e-05
7.675426053854116e-05
5.010430401844867e-05
3.778326107351292e-05
2.6220276079027708e-05
4.601426540190179e-05
6.066518837791936e-05
5.801800631958354e-05
7.428058325158157e-05
7.554813253894823e-05
7.768619089657908e-05
6.0537512615081886e-05
6.96489409626802e-05
6.998236019078186e-05
7.332230064243497e-05
5.140780769377238e-05
3.9499845182018e-05
2.5953697585235718e-05
2.6885020058031e-05
3.681421665352197e-05
5.209195482226837e-05
7.318295096807934e-05
7.426721426644642e-05
0.03557935487310398
0.035364952971857176
0.03573133158570117
0.03537125192362961
0.035719300933065086
0.03536771253105734
0.035527744802182515
6.945384878169223e-05
7.29649760845277e-05
5.628505258321656e-05
3.631593038249826e-05
3.7685816156034245e-05
3.9468702200638194e-05
5.4955242821637036e-05
7.493022845039731e-05
7.442001786447664e-05
0.03560816962915592
0.03560722532706543
0.03584078636647524
0.03583676188943737
0.035841479936731487
0.035841598521724125
0.035842808072897483
0.03583326294592203
0.03583683040238756
0.035526534188790475
0.035344759729546454
7.557084756152254e-05
5.0625120382809e-05
3.4544241437691434e-05
5.070417486316376e-05
6.973655866798972e-05
0.03536033216825692
0.03559471976388186
0.03583965877783348
0.03583714577090022
0.0358446596452566
0.035845639116924954
0.035845628262257886
0.03584395478544065
0.035846055955044046
0.03584179006450167
0.03584347881034357
0.035833511892426145
0.03571466601987351
7.30516151481875e-05
7.343053260817635e-05
4.4692828198445844e-05
2.5789794273768528e-05
2.6092718393785632e-05
3.6070400015012656e-05
5.039758278372198e-05
7.171655429670852e-05
6.894910601911445e-05
0.03572693561004372
0.03585882520398015
0.035846200843808365
0.03584258744769826
0.03584643600401364
0.03585601283468634
0.035862696971678376
0.035850130326527875
0.03585760620694756
0.03585034590086672
0.03584392049241508
0.03584054508761233
0.03583434985719233
0.035378355312615996
7.538174940190405e-05
5.973279025598992e-05
4.957341418786117e-05
4.709057441813934e-05
5.91044445208102e-05
7.597869480496113e-05
0.035393761122293525
0.0358327036992615
0.035840112526609735
0.035844141566000444
0.0358553840643259
0.03585073656339993
0.03584972992584228
0.03585453022338747
0.03585013249282215
0.035864395224551066
0.03585062285813591
0.035857866019647244
0.035844109836897155
0.03584171888885009
0.035716285330584296
0.03537542590006197
7.084384599493798e-05
3.689880512370676e-05
5.593440421045402e-05
7.355054916647191e-05
0.035547566948161705
0.03565810255987469
0.03584156878369959
0.03584543569076857
0.03584882608610053
0.03585194547742321
0.03585370880735121
0.035854362208633736
0.0358562445415776
0.03585318391471376
0.03585903661693376
0.035851079910891
0.035850739213696456
0.03584634185484849
0.03584382410149819
0.03583553208614722
0.03552950550483767
7.488236481300921e-05
5.623284588465666e-05
5.037579750493662e-05
7.461221021548996e-05
0.03544974980824301
0.0358355219443446
0.03584377769718991
0.03584577713047658
0.035848491655510295
0.03585328018146617
0.03585640422933366
0.03586655018356601
0.03585683646052022
0.03585591057938546
0.035856305095296935
0.03585181578285439
0.03585472178615821
0.035844919288936905
0.03584532303465763
0.035837749208264554
0.03554431561009215
7.007161891380561e-05
5.2184155665732556e-05
4.069240633794487e-05
2.6982657102155965e-05
3.7917390061924956e-05
7.212693775803462e-05
0.03543518663439089
0.03583360882779357
0.03584489503886562
0.035846743048026
0.035854691818189524
0.035852277767489525
0.03585152462140805
0.035852531006761446
0.035853291821916794
0.03585688783951179
0.03585808762806922
0.0358524920232428
0.03585162363705618
0.03584650147301491
0.035844698480970064
0.03584002658656758
0.03553826508360936
7.403634074529119e-05
5.912985880909056e-05
3.58094845195129e-05
5.19612653133439e-05
7.349987517467379e-05
0.035222582450886664
0.03583018869750118
0.03584863205925867
0.03584311339909954
0.03585247313222176
0.03585390101627181
0.035855610772376555
0.03585376376834376
0.03585232439427535
0.035857608908767664
0.03585149231840319
0.03585189223526028
0.035857549024763416
0.03585136063214429
0.035841083742504984
0.03583289144746587
0.035527637913330815
7.733768725253203e-05
7.233416099770458e-05
3.719019439904046e-05
3.584877085714908e-05
5.8497382108647416e-05
7.582214115011374e-05
0.03573359543782867
0.03583740006844164
0.03584423592992504
0.035876592726203416
0.035851615886544445
0.03585098882108666
0.03585493068004156
0.03585783101473847
0.03585610871805632
0.035849885223326446
0.03585177856687177
0.035848191685005644
0.035846945710281804
0.03584168352041272
0.035835455672234603
0.03538182692206444
7.690940599466797e-05
6.095091035142435e-05
5.375001469305671e-05
4.4333064920714364e-05
4.078652888538878e-05
5.194613699859293e-05
7.366535719539347e-05
6.419205494599624e-05
0.0355039233803041
0.03583530212625398
0.0358488842005799
0.03584655349448202
0.03585097446633856
0.03584927046798908
0.03585824405201354
0.03585041959401339
0.03585118375146898
0.035849102225048696
0.03584924635395618
0.035846422399850225
0.035843567558167144
0.03583588835338054
0.035713995626603226
7.448998258351543e-05
7.485953478994262e-05
4.7059587788321296e-05
4.62393357014194e-05
7.467045393774021e-05
0.03531840870201338
0.03554270020748136
0.0358359529883365
0.035839731582764975
0.03584891013814864
0.035872402057878484
0.03585272440493048
0.03584787737859124
0.035848860474410486
0.03584648213057259
0.035847503827592234
0.03584533188551101
0.035840448909486386
0.03571431549849367
0.03538274875515541
7.459588504481708e-05
5.711772886754034e-05
3.618231242879567e-05
5.313103530127016e-05
7.497947765799842e-05
7.708213664951515e-05
0.035593634884214964
0.03561215537508562
0.035847086539386556
0.03583872690272406
0.03584437640433774
0.03583921927122309
0.03584245956800665
0.035838153862716396
0.03584403496965162
0.03583550871981285
0.03583735344563579
0.03534874850951292
7.823500414022474e-05
5.6104428624844266e-05
4.501439176391436e-05
2.6676516277256664e-05
2.575836452834301e-05
3.7367234145178516e-05
5.908087176477462e-05
5.573565116076182e-05
7.276534326129916e-05
7.792441833726383e-05
0.03561003648064366
0.03557604593035095
0.03583285357040729
0.03572858754827937
0.03584015293076431
0.03572016042878946
0.03583534798250343
0.03552813012914598
0.03552928547095074
7.189400207263515e-05
7.562048523218046e-05
5.979950236914016e-05
2.608629251727722e-05
4.4217227163425013e-05
4.5119810975940407e-05
5.960824810195179e-05
6.945550967935371e-05
7.536572046067965e-05
8.047717024413256e-05
0.03536681785344075
7.334045881110609e-05
0.03537693622578671
7.578201130721905e-05
0.03536882992750669
7.313412630682284e-05
7.673395547431521e-05
5.1698693234834824e-05
4.6082243897063695e-05
3.508339821253934e-05
5.222958174639738e-05
5.823914164741951e-05
5.7932431433853555e-05
7.430163844788154e-05
5.8322141195801824e-05
7.87051001043283e-05
7.432100088399959e-05
5.638598611500155e-05
5.919563350744948e-05
2.6060850007799964e-05
3.473481037024962e-05
4.5619858436540275e-05
6.666061453376212e-05
5.821868998788472e-05
3.559372048836852e-05
4.521449105283428e-05
3.5796353163647165e-05
4.6825124847653706e-05
4.973212654932776e-05
4.493989508886481e-05
2.7074040252951683e-05
3.634440906974041e-05
3.6778578122570974e-05
3.5937724403112804e-05
2.70017565958961e-05
3.5890374748450306e-05
2.672805026940948e-05
2.6145736308044556e-05
2.6391088519452617e-05
2.6953054089861317e-05
2.671948723534823e-05
2.661087860300411e-05
2.529352912578813e-05
0.0
0.011464446672253617
0.011557370747378417
0.011548320768386466
0.011548680857024284
0.011560024086958989
0.011548934859364349
0.011584928159462072
0.011550162215165045
0.011549825354348803
0.011547766929287533
0.011553891412275516
0.011553485547683796
0.011549613448102684
0.011547540098666638
0.011553039250652434
0.011552187948732778
0.011549502623163822
0.011548508119976313
0.01156321195171613
0.011550062172328731
0.011554387769604513
0.011549371730071707
0.011551505016931987
0.011548515546785541
0.011548885915609885
0.011549668412992091
0.011548251585747557
0.011548069836688105
0.011554284767115279
0.011550515195271827
0.011551230433991446
0.011548730604222313
0.011551285299927399
0.011550511828726056
0.011550837252136901
0.011551602677773694
0.01154879211534651
0.011548413713963795
0.011548229075121158
0.011548743557245415
0.0115514898146305
0.011550440838020334
0.01154732859037038
0.011555582533156436
0.01154985973437991
0.011549546697790625
0.011548284412331265
0.011547387590259396
0.01155088084062386
0.011550110084345722
0.011551970871715053
2.542772848162037e-05
2.6601200809343737e-05
2.623501900242969e-05
2.6824497514128557e-05
3.6076450466471096e-05
3.753879146671193e-05
2.664598622450959e-05
3.58662642774894e-05
5.609779324569194e-05
3.763733104825201e-05
5.177126173789876e-05
5.1982431534334394e-05
4.603873855424555e-05
7.272960037817618e-05
4.7000435100598566e-05
7.20641824310302e-05
4.9243352260797906e-05
3.740796467182405e-05
2.6036208333102783e-05
4.754718597571179e-05
5.964742132873548e-05
5.7017666025585337e-05
7.633884260566703e-05
7.496155939948014e-05
7.606429325663151e-05
5.9646932134706774e-05
6.967383034142844e-05
6.931134844212193e-05
7.499672775328417e-05
5.10845312647797e-05
4.002724517108266e-05
2.693282151240354e-05
2.6600065966214786e-05
3.6661959074272664e-05
5.0591063166489214e-05
7.280511359021872e-05
7.513008853390726e-05
0.03082766480950841
0.03064499957686439
0.03096541351736469
0.03064958430531632
0.03095714086594107
0.03065099897049503
0.030786785334190048
7.047381089539436e-05
7.140774286617232e-05
5.483790731416724e-05
3.559027886901782e-05
3.704197788762115e-05
3.924773981031239e-05
5.657486667818128e-05
7.646791902177791e-05
7.23988283499985e-05
0.03085775846705257
0.03085852381718617
0.031067705030345817
0.031062931126784172
0.03106257963255983
0.0310595534684298
0.031063568229298188
0.03105476292009633
0.03105846755596873
0.030787301131326335
0.030629883859354428
7.469355884174247e-05
5.183431422180415e-05
3.5588883171773045e-05
5.1859548820864805e-05
7.107138789276699e-05
0.03063822847244945
0.030830625055821206
0.031071040080852673
0.031060737924549067
0.031069256402126356
0.03106630831578166
0.031069951132122086
0.031078123341569702
0.031071732767227564
0.03108155551024403
0.03107352361767493
0.03105807869794414
0.030953631496324067
7.189919393138095e-05
7.167513575621152e-05
4.524260476295429e-05
2.6529036055560592e-05
2.6278115612899708e-05
3.6753086208630273e-05
4.972553695652086e-05
7.172631829561764e-05
6.960136370545493e-05
0.030961755146310527
0.031055488896307673
0.031067517454195386
0.031067434118190122
0.031074064379161423
0.031077752290266485
0.031116296932136057
0.031112387669808325
0.031075273751690474
0.031078635716082256
0.031070131569061292
0.031068815984853934
0.031060659244325294
0.030659434880203642
7.630802210564171e-05
6.0873924151113774e-05
5.059800692473837e-05
4.769847500460537e-05
5.961192774432361e-05
7.793484975567377e-05
0.030669116660356953
0.03106748993003902
0.0310680414257963
0.03107158088974778
0.031074462078059834
0.03110433394606677
0.0310740368314556
0.031078274457235676
0.03108267260638066
0.031081884467684028
0.031084587480673578
0.031078350632154708
0.031066881779920116
0.031068739321219334
0.030956573682164323
0.03065571119558068
7.090775921958194e-05
3.704521356579174e-05
5.5585837029764955e-05
7.239566758115378e-05
0.03080632720846941
0.03090189126585604
0.031069910659079658
0.031070375005878142
0.03107160502282917
0.031071939990609976
0.03107676666032843
0.031082243213768228
0.03108088853877617
0.031085684456078223
0.031082085850802646
0.031076815015217578
0.03107300232636142
0.0310698748282357
0.03106626752296775
0.031056017036077195
0.030791556161977172
7.460944946837642e-05
5.572760368649838e-05
5.111374857770053e-05
7.282338325228469e-05
0.030723731548859583
0.03105994515163054
0.031065551060409296
0.031068608227754556
0.031078319424173807
0.031075665007877482
0.03107996729974006
0.031080326733299565
0.031081119918546868
0.03107800488598441
0.03107877402894444
0.031076737646843676
0.031077766945383046
0.031079073784571247
0.03106483755849717
0.031065842162787356
0.03079655879740316
7.029680900427117e-05
5.04747422259009e-05
4.002331751816207e-05
2.6965678045665076e-05
3.6920078653721725e-05
7.104642173835138e-05
0.030704914584320182
0.031059804429319115
0.031064536817094437
0.031070762957767083
0.031075771045745354
0.031078931976828372
0.031077645215086498
0.031080138479842763
0.031083798726888913
0.03108528280043303
0.031081419162042177
0.03107529864738704
0.031077714140054537
0.031074945888463615
0.03106473794904236
0.031063188764959046
0.030797468734702908
7.204645780155163e-05
5.9774555882845384e-05
3.630453615408596e-05
5.2982930768194576e-05
7.365477414719563e-05
0.030528309491608
0.031057184443681062
0.03106901201069047
0.031071498372099972
0.031076044569649932
0.031081438957356412
0.03107987317705861
0.03107897278838253
0.031078254164006065
0.03108001969982449
0.031080750415855826
0.031082797570872008
0.031071977105537767
0.031070830697562342
0.031065090430335993
0.031058749870572618
0.030787677100991652
7.689917740845266e-05
7.216201816470203e-05
3.649027841759652e-05
3.563698297414623e-05
5.820489736320567e-05
7.372705280020732e-05
0.030969119277816187
0.031059102729761028
0.03106785210638479
0.03107056196857557
0.031079057737598174
0.031077078910522395
0.031077374739953242
0.03108104216269026
0.031082236058823945
0.031075450967644767
0.03108072216337559
0.031111980212737957
0.03106961188168393
0.031067267798876065
0.031056637042357668
0.030655969179048483
7.360019214982803e-05
6.039638423813524e-05
5.2666707581620236e-05
4.504783158368345e-05
3.9439404439882815e-05
5.171418914476557e-05
7.447135518513219e-05
6.395679207403083e-05
0.030770107422384202
0.03105773578841505
0.031071844663483936
0.031069500530806485
0.031073137118316572
0.031073709772073646
0.03107916307674293
0.031074750302047777
0.031074043882741972
0.03108054916958236
0.031076564960511366
0.031069126409611604
0.031080156010549836
0.03106190393308712
0.03095144546786221
7.285851106556966e-05
7.631374849606123e-05
4.634849760974083e-05
4.6198946167498267e-05
7.51330762123671e-05
0.030609196957941488
0.03080399331023656
0.03106308045659557
0.031065706628960216
0.03106885731325182
0.031069453404849165
0.03107415624844452
0.031076035548865497
0.031073662969173133
0.031072635529964324
0.031074399343758975
0.03106826268251623
0.031063723106058996
0.03095824198610185
0.030660163740384983
7.485851257995696e-05
5.53227546110992e-05
3.5465070893364604e-05
5.3482447418035334e-05
7.433973549907547e-05
7.800039427247585e-05
0.030853449169694517
0.030866678564800368
0.031061471701986997
0.03106149243818172
0.03106826474713084
0.03106409246278384
0.031078385125586402
0.031065993696622874
0.0310672141638211
0.031059470639947965
0.031062379472152242
0.030632893195501987
7.582169744622575e-05
5.802333578553517e-05
4.452396512571289e-05
2.690223415433478e-05
2.6645442614066166e-05
3.667684220982436e-05
6.033682209165539e-05
5.5911112335890793e-05
7.3368950656494e-05
7.756276267600471e-05
0.03086362544383565
0.03083556533831746
0.031058873146563335
0.03096344017277172
0.031065067774152473
0.030957165703472508
0.03105661177273516
0.03079253748533017
0.03079075788748861
7.21532726058216e-05
7.403126217878383e-05
5.906152099414229e-05
2.6463562262837723e-05
4.611322951907613e-05
4.433715614567928e-05
5.9343181665434165e-05
6.82803381351748e-05
7.628010129484509e-05
7.565103586977193e-05
0.03064815256411479
7.272843935902647e-05
0.03065687227430705
7.573476368324805e-05
0.030649306225084418
7.396732822624109e-05
7.951366521583571e-05
5.193732354896391e-05
4.5161804373338746e-05
3.53795126116202e-05
5.0651638905827935e-05
5.8692859024794724e-05
5.761156659842202e-05
7.985769425740923e-05
5.805148982999498e-05
7.609281333070177e-05
7.30992663473981e-05
5.668884460202221e-05
6.016107018297869e-05
2.6847200261234152e-05
3.4857871061702865e-05
4.592163933612177e-05
6.705678280480187e-05
5.6547905989929846e-05
3.5310434932454634e-05
4.5418811090569075e-05
3.6090666844432993e-05
4.8121546540148244e-05
4.887972480263474e-05
4.537498467138007e-05
2.647695521383924e-05
3.7419575184896974e-05
3.757935365952246e-05
3.52771771135185e-05
2.654413375510915e-05
3.520353768256614e-05
2.5498473810111722e-05
2.6352042993075288e-05
2.592235945253927e-05
2.6228322891406026e-05
2.5957072052892135e-05
2.603774888166704e-05
2.631030973127522e-05
0.0
0.009964894946030943
0.01004896026334863
0.010047762907587595
0.010049498970124224
0.010050212812260373
0.010049544807859127
0.010050908754066038
0.01004985359095749
0.010049277054163419
0.010050104187758514
0.010051014832984876
0.010050310960228539
0.010051072815564959
0.010051810821900039
0.010050709744930348
0.01005264909404504
0.010050582677122624
0.010047681236532071
0.010051617157025482
0.010048262736572073
0.010053437317830188
0.010050099340570702
0.010050259066277403
0.010050749352372506
0.010047362852599433
0.01004977055487017
0.010049628906434228
0.01005246831699799
0.010048366131154417
0.010047605529320111
0.01005055475599309
0.010048741596359193
0.01005006250526287
0.010051126597736012
0.010049458234367996
0.010052360817584281
0.010051643626811402
0.010051596959214423
0.010050969637872496
0.010052076530234346
0.010051473301834132
0.010049268585008804
0.0100502705895966
0.010048059102592797
0.010047629328117539
0.010048204610182954
0.01004984351207592
0.010049917170919381
0.010050838832744474
0.010049135269909089
0.010050337729396702
2.6654895610361074e-05
2.618914174841791e-05
2.6568930965337935e-05
2.5833476289350833e-05
3.612313901616412e-05
3.7279973652328006e-05
2.595670790541273e-05
3.5696858959968466e-05
5.654660019417711e-05
3.817578097457535e-05
5.095844118765115e-05
5.178170214635202e-05
4.624857412578505e-05
7.134643946035915e-05
4.629166328253524e-05
7.215845315659337e-05
4.971629871305921e-05
3.5943072395734655e-05
2.673746455501451e-05
4.6557549157968145e-05
5.9179045348570883e-05
5.719468802480592e-05
7.401936018348879e-05
7.304000116064049e-05
7.433524259125181e-05
6.011661242518283e-05
6.99578393895191e-05
6.89750231065067e-05
7.428043224456052e-05
5.1487785854712254e-05
4.004394329072727e-05
2.5585083504513813e-05
2.7006461643662762e-05
3.6723760028512463e-05
5.115211676433644e-05
7.225531222821311e-05
7.386510141901739e-05
0.026883615155089222
0.02673064044877938
0.0269978374137688
0.026724567772742645
0.02700416779344728
0.026722485838034563
0.02684881423228542