# vtk DataFile Version 2.0
HASEonGPU converted Tet4 laserPumpCladding input
ASCII
DATASET UNSTRUCTURED_GRID
POINTS 4210 double
3 0 0
1.8369701987210297e-16 3 0
-3 3.6739403974420594e-16 0
-5.5109105961630896e-16 -3 0
3 -7.3478807948841188e-16 0
1.5 0 0
1.4881720519717168 0.18799985034645639 0
1.4528747416929466 0.37303483074728216 0
1.3946647288323772 0.55218682902701688 0
1.3144600200657954 0.72263051115257304 0
1.2135254915624212 0.88167787843870971 0
1.0934529411321172 1.0268206588930329 0
0.9561359846230344 1.155769864163684 0
0.80374019246849482 1.2664918882530225 0
0.63866893734760899 1.3572405786990294 0
0.46352549156242118 1.4265847744427302 0
0.28107197187858712 1.4734308760930328 0
0.09418577929397029 1.4970400926424072 0
-0.094185779293970096 1.4970400926424072 0
-0.28107197187858723 1.4734308760930328 0
-0.46352549156242101 1.4265847744427305 0
-0.6386689373476091 1.3572405786990291 0
-0.80374019246849526 1.2664918882530225 0
-0.95613598462303462 1.155769864163684 0
-1.093452941132117 1.0268206588930333 0
-1.213525491562421 0.88167787843870982 0
-1.3144600200657952 0.72263051115257337 0
-1.394664728832377 0.55218682902701721 0
-1.4528747416929466 0.37303483074728222 0
-1.4881720519717168 0.1879998503464568 0
-1.5 1.8369701987210297e-16 0
-1.4881720519717168 -0.18799985034645644 0
-1.4528747416929466 -0.3730348307472825 0
-1.3946647288323768 -0.55218682902701743 0
-1.3144600200657957 -0.72263051115257249 0
-1.2135254915624212 -0.88167787843870959 0
-1.0934529411321172 -1.0268206588930331 0
-0.95613598462303429 -1.155769864163684 0
-0.80374019246849449 -1.2664918882530229 0
-0.63866893734760821 -1.3572405786990296 0
-0.46352549156242134 -1.4265847744427302 0
-0.28107197187858696 -1.473430876093033 0
-0.094185779293969818 -1.4970400926424072 0
0.094185779293969249 -1.4970400926424072 0
0.2810719718785864 -1.473430876093033 0
0.46352549156242084 -1.4265847744427305 0
0.63866893734760777 -1.3572405786990298 0
0.80374019246849393 -1.2664918882530234 0
0.95613598462303395 -1.1557698641636844 0
1.0934529411321168 -1.0268206588930333 0
1.213525491562421 -0.88167787843871004 0
1.3144600200657954 -0.72263051115257304 0
1.3946647288323768 -0.55218682902701799 0
1.4528747416929464 -0.37303483074728305 0
1.4881720519717168 -0.18799985034645697 0
1.5 -3.6739403974420594e-16 0
-2.9092010630146201 0.73249515884859218 0
-2.5948422592105751 -1.5055874762582662 0
-2.638638710324535 1.4274402933464378 0
-2.8978884492196491 -0.77604290239438267 0
-2.4227068937481744 -0.29854480912972997 0
-2.2388459313433096 0.80558197238431417 0
-2.1185483491509167 -2.1240887177939527 0
-2.2762777337060913 -0.88614019046409476 0
-1.8284026793996355 -0.30461628664767487 0
-2.3539448847492319 0.28920205505325541 0
-1.925117162062326 0.23371179250294496 0
-1.786888953758706 0.82090200043143891 0
-2.029363796594148 -0.52189541073442902 0
-1.629488009228552 -0.35615711274498935 0
-2.0803231070301726 -0.083492539902757262 0
-1.6755721404685429 0.20772020998593044 0
-1.9165499560764339 0.52102211743306048 0
-2.0300899814367166 1.266754822127965 0
-2.1964213531716528 2.0434610958106756 0
-1.8561330767803648 -0.91743606522273857 0
-1.589270957140853 -0.86153152545695189 0
-1.7343328997797542 -0.60722692470395634 0
-1.5664914951235849 -0.5228335341948539 0
-1.6477868617856892 -0.15715135467004851 0
-1.6437460384134761 0.051158601521915585 0
-1.8041893772262778 -0.023743408280853934 0
-1.6547987547448935 0.37371238924561423 0
-1.6180315114053807 0.5510125353778732 0
-1.5268798570482995 0.69238319934821035 0
-1.6388239287711379 1.0850038388965961 0
-1.6875760156370767 1.5197012524492868 0
-1.5593336036955092 2.5629043564563472 0
-1.4996988441497003 -2.5982500727471542 0
-1.9802297060357401 -1.3698089453659321 0
-1.5762166081711686 -1.1573249426138803 0
-1.4007627594884051 -0.9085974167883949 0
-1.4989064337745857 -0.70379764388621613 0
-1.2625610835544718 -0.40520734113723156 0
-1.325228904412973 -0.23859163392566166 0
-1.2943948053394074 -0.073335637986973831 0
-1.3427827258590763 0.089656682569852653 0
-1.2741279578802678 0.24872482112065408 0
-1.2821538783158424 0.40953240146002873 0
-1.2027516339180548 0.57198522631513882 0
-1.4812954882130449 0.84895039853631105 0
-1.3733470370259659 0.98381510339478051 0
-1.4063508735593937 1.2529923318366569 0
-1.5224835441189251 1.9183802856671823 0
-1.3734112884475305 -1.963044106645158 0
-1.6217056230882707 -1.606012273936521 0
-1.3394498385626938 -1.328073048933422 0
-1.163148119633501 -1.1842337395038438 0
-1.3070589534128838 -1.0649283111320864 0
-1.1113388727093745 -0.71495559522356988 0
-1.1950442737690117 -0.56412598609081921 0
-1.0750534249115704 -0.39661900603232197 0
-1.153617374305147 -0.2288795158674283 0
-1.0803890641793377 -0.068198157584990579 0
-1.1609975453446943 0.086397503654689151 0
-1.0640688638417983 0.24408334498195666 0
-1.1116968993602518 0.40207362957839665 0
-1.0126556824674025 0.57215597613873848 0
-1.1166879670667695 0.72548496557727571 0
-1.0215992045429356 0.87877978378487465 0
-1.2449316405281541 1.0936968153748481 0
-1.2528829909072468 1.4890660584210109 0
-1.0178460593377705 2.2349390410799095 0
-1.1799297904464485 -1.5674061482718298 0
-1.053995649329464 -1.3194350766749008 0
-0.90549945501362272 -0.99679158350665542 0
-1.0121778523560141 -0.85565639728473197 0
-0.90058892009910052 -0.70847393739939535 0
-0.99455595253628404 -0.55670121090994473 0
-0.88085370431514531 -0.3937277336806414 0
-0.96679865129551756 -0.22917106497450077 0
-0.87473932892886563 -0.067133388022849017 0
-0.96287522754762223 0.089737035928369666 0
-0.86096791778617987 0.25359720820182052 0
-0.9291275978649064 0.41075915724199275 0
-0.82710198310864169 0.5901914883258691 0
-0.91926261194328718 0.74398581909229744 0
-0.87753040470528454 0.9586157336022012 0
-1.1390787781582592 1.2385909081969002 0
-0.99471085676146187 1.3503173090428844 0
-1.1194912599855567 1.7930890994062907 0
-0.80032557569043294 2.8912763624767202 0
-0.76650813498443493 -2.9004250157097853 0
-0.92596498484480139 -2.2420169147785218 0
-0.93065761143326786 -1.7641322268359176 0
-0.76167743586714198 -1.5103902682172938 0
-0.91978973580081902 -1.4439707153547374 0
-0.7471457695070477 -1.0596134169643181 0
-0.79988562703292954 -0.86114847093426927 0
-0.69545438153746431 -0.71156615669761192 0
-0.79144204845223087 -0.55273830651967704 0
-0.68372981412882372 -0.39127236548686906 0
-0.77389003567853221 -0.22851799349297833 0
-0.6758485354502406 -0.062509188282699774 0
-0.76578475197800677 0.097233351211423291 0
-0.66591199087864228 0.26899409487517151 0
-0.74487864822602201 0.4295023019591197 0
-0.6541142583383317 0.62066143154172349 0
-0.75580089750440516 0.79138852320325104 0
-0.67091592346472706 0.95464566450371424 0
-0.77487765708040479 1.0995834017989343 0
-0.79869857593483573 1.4387056306916721 0
-0.93665607595392431 1.5546038975791305 0
-0.77864996168239464 1.8161318328826686 0
-0.61353808585111624 -1.9912892840373866 0
-0.62323154969557781 -1.7089059084720191 0
-0.57476832037177294 -1.5368146313824718 0
-0.63793544677181879 -1.1830000433905992 0
-0.52751653788231179 -1.0426931925797678 0
-0.62017295488032353 -0.89424936878366901 0
-0.50669515487228767 -0.72846919149549239 0
-0.59154985920645597 -0.55404564522811806 0
-0.48878995257535085 -0.38914272132141131 0
-0.58006441956412302 -0.22480175810960359 0
-0.48164302349733218 -0.055593658233160488 0
-0.57293926956204289 0.10779851958094987 0
-0.47652327682058099 0.28339409608037769 0
-0.56402551364572673 0.45082301866678548 0
-0.46762066634198834 0.6261494430069231 0
-0.56497407774447306 0.7934328578233576 0
-0.48961916673243916 0.97691456553315903 0
-0.60618811689263163 1.1497232480528154 0
-0.4742094490475352 1.2590003451647966 0
-0.66463891755205384 1.5629920717612207 0
-0.36131365857486558 -2.3511329639786838 0
-0.34793084410212505 -1.8626017024234176 0
-0.39289751616072954 -1.6245634669036431 0
-0.31463216144960332 -1.2915179593386732 0
-0.46642659870548159 -1.2272171454012473 0
-0.33491084033783763 -1.0670527789485813 0
-0.41631791924388989 -0.89039663954563619 0
-0.31181964526899975 -0.7222331744974414 0
-0.40114756376878036 -0.55847270264344362 0
-0.29780899185629278 -0.38891562830600757 0
-0.38777029034256993 -0.22078898707456487 0
-0.29014568668542778 -0.050365931330651592 0
-0.3829147870845242 0.11678225684600209 0
-0.28603439902696814 0.28874089935748026 0
-0.37652314225038691 0.45723474206909159 0
-0.28285935985123906 0.634056233724409 0
-0.3812739593352989 0.80596000288030079 0
-0.28432579640457945 0.96717187850060327 0
-0.38401137154317538 1.1193412798190607 0
-0.28929041088106155 1.2996653185743416 0
-0.48649810464939913 1.5786338372237843 0
-0.50956987991026059 1.802700551049921 0
-0.10156301702722029 -1.9776698354740183 0
-0.18850645867119584 -1.6711101166352897 0
-0.12491842961146801 -1.333492551777415 0
-0.19531088201376173 -1.165235070178507 0
-0.11396487659381563 -1.0169604998755526 0
-0.22711736892693501 -0.88992552182652396 0
-0.11845331805017587 -0.72069302201854535 0
-0.20739099047019754 -0.55455554346669034 0
-0.10550087553679044 -0.38644865819451252 0
-0.19736124887727366 -0.21878420354912947 0
-0.099429935623401258 -0.048143548431330535 0
-0.19246831389354235 0.12043663192685652 0
-0.096305895709434486 0.29164933055122599 0
-0.18946837129989327 0.46219349980575375 0
-0.093646175437730308 0.632792208494797 0
-0.18750683698080658 0.80307016294956868 0
-0.093180419620707694 0.97837378048707846 0
-0.18910737309012304 1.1435649848320233 0
-0.099982572689058719 1.3266515631625531 0
-0.32585079229692676 1.6531691556466916 0
-0.25725985857269978 1.9385028597941227 0
-0.58126105676834439 2.18968912022916 0
0.72890636030000433 -2.9101023143834968 0
0.13870214135764744 -2.3883760262207527 0
0.0063019320178563437 -1.6943844456388202 0
0.066747659465658471 -1.3392247008584173 0
-0.0043774832355384184 -1.1757340807926229 0
0.091920900400353861 -1.0209382459652763 0
-0.01412700401732131 -0.86652712359602013 0
0.086764461817082472 -0.71218318669596081 0
[...]
POINT_DATA 4210
SCALARS betaCells double 1
LOOKUP_TABLE default
8.575442214683174e-05
8.734754559446429e-05
8.456460791331696e-05
8.484372536653591e-05
0.0
0.021559949384645557
0.021783522759951664
0.0217967319061314
0.021796284945870575
0.02178435230257151
0.02179229510202448
0.021789366119373488
0.021789469946875153
0.021781789722746237
0.021789649449857944
0.021792641309590476
0.021783100364555847
0.021799736740954107
0.02180519668107717
0.021792232620804465
0.021794910379663426
0.021793827036187416
0.02179176825926671
0.021792125990935943
0.021792732975458654
0.02178831162042939
0.021788145405807084
0.02179323954216137
0.02179189804279514
0.021788838676822627
0.02179330889376839
0.021795562742334032
0.021795454181831174
0.0217941106615979
0.021787913122732427
0.02179145583351321
0.02179429220745143
0.02178659108069397
0.021794914768145313
0.021788307778900277
0.02178924185912042
0.021789023902102092
0.021794543416854946
0.021787913315225407
0.021786795270084137
0.021789429404173426
0.021795788066846747
0.021792230422113285
0.021802945678817246
0.02178640606807518
0.02179348387499509
0.02178333390438693
0.021790778591380178
0.02178605195611887
0.021785212885625377
0.021783374211012826
8.557511306537041e-05
8.673864083961732e-05
8.381762161586569e-05
8.588882397501471e-05
0.00011669317961269371
0.00012341428642779578
8.582910361658253e-05
0.00011491599175449138
0.00018721661219066581
0.00012159184953691813
0.00017305130980804518
0.0001677087157440856
0.0001447702211147866
0.00024044352459533553
0.00015123224252043142
0.00025385279095296355
0.00016361766036596906
0.00012237671391853661
8.523502845177692e-05
0.00015088594398249364
0.0001989272583043165
0.00018792539368042455
0.00024553293727939333
0.00024694439307612316
0.00025073249722089167
0.00019716554025763964
0.00022819785002846675
0.0002307563554057726
0.0002390408159773091
0.0001661943049697135
0.00012896337803007643
8.453609912266035e-05
8.744256012257317e-05
0.00012008993446698068
0.00016986030649373618
0.00024064133583895212
0.0002460965289667156
0.05724648988220066
0.05690733568440266
0.05748462543942286
0.05691871597571781
0.057468297936324894
0.056913241310365945
0.05716474299976704
0.00022749854871776962
0.0002367175027161548
0.00018347783593546124
0.00011822892773066294
0.0001232494845378835
0.0001290374867440025
0.0001785813545194373
0.00024256868581665545
0.00023907315757934326
0.057292244941920346
0.05729133706240509
0.057653830878271674
0.05764891904082341
0.05765572826603871
0.05765388150035517
0.057657719419305385
0.05764560598631242
0.05765005050736684
0.057164081411657776
0.056877174378689235
0.0002460391678149175
0.00016586873315207259
0.0001125222424281581
0.00016469827417165238
0.00022674675705710196
0.05690091975699359
0.057263590541644226
0.05765321122127125
0.05764997771811393
0.0576597642992219
0.05766095479444149
0.05766033557203004
0.05765869050189308
0.0576601716143704
0.05765599410637549
0.057657289952239676
0.05764773248830953
0.05746147224974285
0.0002398746812752162
0.00023886975506079707
0.00014598441417742452
8.414307761181512e-05
8.488788200010383e-05
0.0001181608978335868
0.0001636254987022074
0.00023263232694535586
0.0002245594520281477
0.05747965114563623
0.0576744651488822
0.05766118455863193
0.057656897210621935
0.057661436134631955
0.057672891856580026
0.05768001089419955
0.057665530992572225
0.05767419309204451
0.05766515985324681
0.05765836039556864
0.057654662028983616
0.05764704391981649
0.05693000727050548
0.0002471082356168863
0.00019535110082759754
0.00016125182961495833
0.00015301089522288196
0.00019323969679753015
0.00024784185062002456
0.0569541260350961
0.05764504451018427
0.057653882478843226
0.05765871588395503
0.05767116537435467
0.05766634937513272
0.057665016260285334
0.05767055809450378
0.057665659532211276
0.057678922459683
0.05766650588984586
0.05767557881542837
0.05765892504497773
0.057656170120755364
0.05746276345768763
0.056925683903785995
0.0002319520848536862
0.00012087148086492434
0.00018236082366329123
0.00023916312535632233
0.057197212213471724
0.05737143743208634
0.05765592019072471
0.057660461797442567
0.05766434177095572
0.057667226959618165
0.05766963824144093
0.05767135450274993
0.05767230008986998
0.05766951368249771
0.05767554646228666
0.05766693704315403
0.05766575241546257
0.05766168251934344
0.05765803166055003
0.05764753091481917
0.05716861307494708
0.00024503815945974716
0.00018123644569983287
0.00016426048689476903
0.00024373845458483773
0.057043048097662696
0.05764741447178786
0.057657977950449565
0.05766117997360773
0.0576641422697145
0.057669662208941305
0.057673582793530756
0.05768398853766852
0.05767335946608437
0.057676901548370726
0.05767343191287875
0.05766833202433485
0.05767106661421914
0.05766002038510731
0.057660528473180456
0.057650724263919345
0.05718998857825747
0.00022844270670346705
0.000170417697949889
0.0001312773858595056
8.766449413715764e-05
0.00012370486645361709
0.00023571782464584356
0.05701901891450506
0.05764551738528246
0.05765889067398659
0.057661553246743165
0.057670561849836856
0.057668915580776484
0.05766693708596691
0.057668303578666445
0.05766904457037078
0.05767354845168519
0.05767729757214813
0.057668399032203436
0.05766723058437655
0.057661492550815346
0.05765900010674452
0.05765295299097801
0.05718271535181331
0.00023881699460975617
0.00019203403426388106
0.00011650401548840099
0.00016958786499777899
0.00023957676725778424
0.0566853114224225
0.05764078412945062
0.057662860560297624
0.05765770230692601
0.05766908895998571
0.057670191032963766
0.05767169144491646
0.05766987145038554
0.057668334080101344
0.057673608010206746
0.05766761400748702
0.057667308048446525
0.05767421234562266
0.05766698971847609
0.057655556357327165
0.05764435192503301
0.057166508300208266
0.00024995244177336524
0.0002345181600791882
0.00012219634534387744
0.00011683194787171892
0.00019003171905818787
0.0002481344503938592
0.0574892428414627
0.057651340201437494
0.057659575109239164
0.0576902903585489
0.05766803886530653
0.05766655490361945
0.05767196217558373
0.057674881239112324
0.05767272788777457
0.05766568859212953
0.057668155878678545
0.057663520750342055
0.05766223053738659
0.057655327458453934
0.05764728032984242
0.0569337777631992
0.00024733064871602624
0.00019888135397066038
0.00017542832654527047
0.00014513448920110266
0.00013255921911445908
0.0001690452716381783
0.0002404172991534146
0.0002105551453223914
0.05712815716758692
0.05764484420736242
0.05766282708621437
0.057661914680737655
0.05766581907544685
0.057664648226217745
0.057674239337335835
0.05766592300712244
0.05766670520626427
0.057664278379471974
0.057664984980731394
0.05766147080001202
0.057658210864256265
0.057648702870602864
0.05746085943585842
0.00024341599268820358
0.00024402203413601697
0.00015310628460828477
0.0001498259728555624
0.00024355978591463675
0.05683675887505083
0.05718950700038976
0.05764868643476712
0.05765326649738251
0.05766468385774811
0.05769162956959316
0.057669698753026424
0.05766285476751144
0.0576645172371208
0.057661064795477036
0.05766191672161393
0.057659912163848887
0.05765437071516098
0.05746058787910859
0.056936495622940085
0.0002441365800970908
0.0001851601950958588
0.00011768427144474284
0.0001729147096515608
0.00024307526691956337
0.000250150829614518
0.05726929122486937
0.05729924454851121
0.05766341476045646
0.05765261449450186
0.05765836051756781
0.05765328319411037
0.05765694642578198
0.05765188735833777
0.05765855413810603
0.057648443011995475
0.057648957026918524
0.05688254428344981
0.0002519984087165067
0.00018557086244163495
0.00014729912358544644
8.687814439452859e-05
8.426583972180685e-05
0.00012198827901210746
0.0001918958884486979
0.0001818174321052677
0.00024480612767808244
0.00025296587555044065
0.057296554884692166
0.05724275680718172
0.05764499596786428
0.05748212612742929
0.057654155475590226
0.05746993293050164
0.057647218681332234
0.05716614179590282
0.05716813472456714
0.0002339045754424683
0.00024311227883671324
0.00019430605535049707
8.632504042685175e-05
0.0001453738245968058
0.00014654131992072975
0.00019462432502282074
0.00022631036000022374
0.00024475927644755863
0.0002550842877796994
0.05691171837916097
0.00024119515259110884
0.05692718802245516
0.0002484749013356715
0.0569150176069805
0.00024119089149647542
0.0002495795280369259
0.00016862858266231985
0.00015002200487918075
0.00011446978938616423
0.00017019201894194176
0.00018933656780173607
0.00018867519516482036
0.00024108071584345495
0.00018971744374334247
0.0002541498965925598
0.00024178837904516282
0.00018311175524843732
0.00019243038051623614
8.474034068824628e-05
0.00011354911060994103
0.00014850609500729285
0.00022003186284763043
0.00018901838496437272
0.00011707694370208241
0.00014977219915602693
0.00011638096694184
0.00015236301148357782
0.00016293671019610177
0.00014811980332236284
8.88116482818095e-05
0.00011920652775952858
0.00012077273489116184
0.00011761076623104337
8.768611360327291e-05
0.00011683062462614943
8.691532986041404e-05
8.469810846801718e-05
8.574528088676743e-05
8.874192757069851e-05
8.735528491464563e-05
8.758559240653493e-05
8.258826160365646e-05
0.0
0.018649673313980368
0.018891058109455912
0.01888986194632541
0.01889143636398587
0.018903890321461676
0.018892460967365122
0.01891908494819134
0.018890130817250595
0.018890160837228206
0.01888692419591407
0.018894760389736365
0.01889982034878425
0.018887994870852402
0.018884452697564554
0.01890024154657481
0.0189018433218093
0.018886214917710524
0.01888656584397627
0.018920046808610463
0.018889013988146745
0.018902773733066872
0.018891839903561476
0.018894673369509805
0.018886058205721548
0.018887034391204423
0.018893524872663704
0.018886988629479268
0.018891146998162855
0.01890159210514382
0.018893783530802958
0.018893508633430246
0.01888344771460171
0.01889704517696217
0.0188917257524467
0.018892900866000484
0.01889238087904634
0.018891511502962022
0.018886160784951634
0.0188859269632349
0.018890587469102705
0.01889421038178088
0.018890577532386623
0.0188813996092542
0.018894180070234443
0.01889217959841765
0.01888940923030348
0.018887151709514716
0.01888752459563761
0.018888607191876287
0.018893964670382055
0.018897098141361826
8.322129390739088e-05
8.602031418379727e-05
8.594387828548479e-05
8.731922181554749e-05
0.00011763189545663077
0.0001224604148995092
8.687399505071688e-05
0.00011678080062370196
0.00018158203777994685
0.0001231991993167046
0.00016816548012596987
0.00016942175549661216
0.00015052686808832779
0.00023821595595849114
0.00015330032056242108
0.0002365213622797077
0.00016062931730141498
0.00012232594201332962
8.499519799200049e-05
0.00015496883404825712
0.00019546344145394815
0.00018624508350954485
0.0002542430614229524
0.00024252695543689476
0.00025120603151078353
0.00019471914193410107
0.00022698961910325285
0.00023142551421661753
0.00024453119253543126
0.0001669890743165636
0.00013064479029520248
8.741081695746788e-05
8.619321217768256e-05
0.0001190892922321084
0.00016497841177205082
0.000237421516211173
0.000247329895598414
0.04985402117523304
0.04956272930977337
0.05007332069610533
0.04956847407712216
0.05006090853603019
0.04957099466924767
0.049793054425689084
0.00023019492094159417
0.0002311513387535659
0.00017993851590660464
0.0001170787392034139
0.00012109555702302884
0.00012754531072874846
0.00018330053213987644
0.0002467691156465567
0.00023235043182291996
0.04990136089231609
0.04990302735899864
0.05023702080369567
0.050227670430918615
0.05022822379759111
0.05022365142434152
0.05022906460649497
0.050214949515310775
0.050223032103034554
0.04978845632838486
0.04953721972468131
0.00024505175133765885
0.00016861185160205595
0.00011586656590099607
0.0001696171169578015
0.0002339692451429558
0.049551625307103705
0.04986013533259547
0.05024011420306215
0.050225774034391414
0.050237650145582895
0.05023438951617326
0.050239484126861564
0.05024557248036623
0.050241629355197964
0.05025858066618003
0.0502466339237122
0.050221200194270385
0.05005161030911924
0.000234829018400945
0.00023291241977999334
0.0001475868754757477
8.69785808406542e-05
8.615686022847512e-05
0.00011923410430185374
0.00016372525676397955
0.00023664076893871236
0.00022520833204469682
0.050067140724086884
0.05021753609170157
0.050236917693786465
0.0502360944458378
0.05024599794928216
0.05025030585970635
0.05030710813264326
0.050300385251024246
0.05024824757613069
0.05025093188294163
0.050241330474848696
0.05023765399486725
0.050223982948979604
0.04958386549559255
0.00024772632807231794
0.00019746968538826446
0.00016442880420746702
0.00015483325197640393
0.0001954048880602782
0.00025372955802472507
0.04960033896056559
0.05023092440693961
0.05023401968974846
0.05024288829081031
0.05024622765068332
0.05029022167672863
0.050245468793735704
0.05025431728525324
0.05025813407349497
0.05025846349282152
0.05026068482183342
0.050254249763628626
0.05023517042881828
0.050235286950155236
0.05005794672528727
0.04957824958884066
0.00023204014659196056
0.00012250778891031424
0.00017986052894450192
0.00023601231160606307
0.04981875639611748
0.049973670863296876
0.050238355007832705
0.050239946208292086
0.05024231206753572
0.050244344743851345
0.05025913578700664
0.050258410911387164
0.05025759997103412
0.050264664992472854
0.05025773205473101
0.0502512631924464
0.05024607358473548
0.05024013781475379
0.05023311380452222
0.05021849565875079
0.049795715722646045
0.0002439573294036314
0.0001819739557813253
0.00016839532034725608
0.00023488927065256786
0.04968707627230509
0.050222678702157325
0.050232622055871735
0.05023700536343242
0.05025325948639865
0.05024959403095265
0.05025658931255899
0.05025663246577316
0.050257983923789155
0.05025574578382371
0.05025487355649407
0.05025213572265753
0.0502513305282629
0.050253671140032256
0.05023200094710739
0.05023334643323863
0.0498045320669087
0.00023262240482851846
0.00016540466980660988
0.00013110702880740285
8.787153729457543e-05
0.00012008949932378976
0.0002381239735831559
0.04965741149899031
0.0502223609721652
0.05023130013377889
0.05024089057359568
0.05024856461135514
0.050252080752839975
0.050253482407984655
0.050256272722960994
0.05026196970147459
0.050263837229294984
0.05025759337394389
0.050249345272054574
0.05025159639420714
0.05024613834089109
0.05023311472523956
0.050227659169606795
0.04980488228131164
0.00023579155018018972
0.00019211941689888622
0.00011931498192161835
0.00017262200162473015
0.00023808420669995496
0.049375119801252254
0.05021821572998095
0.0502386879408364
0.05024059860619591
0.050246392978393124
0.05025685493271255
0.05025584906381926
0.050253611615344876
0.050253302071349745
0.05025656540842614
0.050257081525227745
0.05025879121700453
0.050243959538877524
0.0502412794224105
0.05023287057135096
0.05022315133897968
0.04978990478572533
0.0002496978796176305
0.0002358256867979725
0.00011830660324133605
0.00011548533385858091
0.0001872516431511114
0.00024293848003863877
0.05007795784840266
0.0502232159534164
0.05023702893942863
0.05024009602487446
0.05025326557691412
0.05025575029070625
0.050255196629194136
0.05025738859455418
0.050257173344337144
0.05024921825393697
0.050256771057434785
0.05028279752996996
0.050239112853867354
0.0502358933558636
0.05021997832916211
0.04958013011156408
0.0002394223693598365
0.0001977135158803061
0.0001733214402987509
0.0001478384320473544
0.0001299682205106457
0.00016867709957349116
0.00024170307743312535
0.0002103284490365663
0.04976141684051695
0.05021923970107503
0.050241296680936215
0.0502415075997924
0.05024478783723102
0.05024451254860188
0.05025280326554255
0.050247720998884936
0.05024598098484616
0.050252745510863096
0.050250207089792075
0.050239140853971645
0.05025625845530842
0.05022779713158447
0.05005011247739158
0.00023833160160626152
0.00024549223661570526
0.0001510384269678255
0.00015089415630574292
0.0002455830936978206
0.04950668812205419
0.04981484957911344
0.05023059705114574
0.05023282056979209
0.050240064318570976
0.0502382026524597
0.05024499430845851
0.050250781997706384
0.05024569414170305
0.05024277359883378
0.050247658669092615
0.050238927195258715
0.0502324531584202
0.05005972293773261
0.04958770008326151
0.00024340762206171877
0.000183244566050431
0.00011550065591135061
0.0001748088645272357
0.0002488724286423944
0.0002443511687125399
0.04989401451844276
0.04991508307196374
0.050228604756832516
0.050228983393757365
0.050236853448774585
0.050229515503340975
0.050250013521983335
0.05023369367329473
0.050236824773139975
0.05022458032949567
0.05023407177801881
0.04954260065721658
0.0002456296217384454
0.00018788893596294188
0.0001466980773061771
8.71536845658453e-05
8.662318008626478e-05
0.00012012186946233722
0.00019766485668429133
0.00018251997668220095
0.0002401846296418225
0.00024983378057315855
0.04990967863460537
0.04986587193189641
0.05022130923782489
0.050070077114313716
0.05023313934110587
0.05006039210907225
0.05021829965871598
0.04979445488853229
0.049792690622917225
0.00023392833094021853
0.00024061043281831213
0.00019326635561265964
8.554827086866407e-05
0.00014671839684492533
0.00014801208199242483
0.00019302756639593855
0.00022187813116428837
0.00024610980036433725
0.00024572471956340713
0.04956570072177008
0.0002411450103418276
0.04958147816851699
0.0002519758425231567
0.04956833556648506
0.00023817950965782255
0.0002536224451167635
0.00016942884349358553
0.00014670025098479768
0.0001156098288215099
0.00016358270594399335
0.00019273021512709963
0.00018740058864938076
0.0002570556592224507
0.0001889979034883726
0.00024960672797405927
0.000239685042756576
0.00018259163965728261
0.00019637395743508815
8.753807405023018e-05
0.00011663497631698069
0.0001477472777866512
0.00021820077452575803
0.00018603791837963304
0.0001165627676469158
0.0001482301728963213
0.00011797075414715191
0.00015560355766568276
0.00016049392727763653
0.00014806872902205283
8.473894567473137e-05
0.00012122814328512327
0.00012160537130742938
0.000114011900023303
8.551729152626107e-05
0.00011384570370362454
8.399218299130851e-05
8.483061198981299e-05
8.501821916153421e-05
8.491399390493426e-05
8.412637476307896e-05
8.528186364059076e-05
8.719701551003199e-05
0.0
0.01623375473070823
0.01647936579723045
0.016473177026143915
0.016479708905017095
0.01648101957363386
0.016476400475637337
0.016486479206203827
0.016476338317052194
0.016478713371064598
0.016477631665248182
0.016476964313189246
0.016480839529564185
0.016481119090492442
0.016483936642224653
0.016480865804939834
0.016481827763187195
0.016476005944854055
0.016477093829466632
0.016482435224797257
0.01647376411787277
0.016482169448344977
0.01647439517511708
0.016480094864084
0.016485971239372108
0.016474752693456843
0.016476233973265534
0.01647435272789386
0.01648408934850353
0.016475281313219684
0.016474452409946553
0.01647811152265762
0.016481405195825437
0.016481764317817827
0.016479834114098146
0.016477146566393652
0.016484971991706694
0.016483139302267354
0.016485443499261978
0.016478938438282506
0.016484371301580654
0.0164836688256775
0.016483946204877368
0.01647743995810878
0.01647516317817327
0.016476029883211025
0.016475620827756984
0.01647854638988567
0.01647829718382414
0.01648025126272908
0.01647836306798598
0.01647558014974463
8.552129307584484e-05
8.560188426303889e-05
8.614643366455301e-05
8.440957141986577e-05
0.00011660541042858772
0.00012111439387726936
8.601200928754121e-05
0.00011487749666521318
0.0001860560109291259
0.0001244559713438614
0.00016745259871913455
0.00016725014405828486
0.00015049186187591438
0.0002317596018863643
0.000148962905413273
0.0002338052505763457
0.00016194475690751973
0.00011969414332834536
8.594974716527498e-05
0.00015164015332760387
0.00019370194116770194
0.00018622477688274173
0.00024326895474526949
0.00023835146760352687
0.00024229231976560304
0.00019524601266230279
0.00023026505522887757
0.00022725842484373716
0.00023648764245376614
0.0001684874831521752
0.0001311416073463891
8.455330980920036e-05
8.696315351529169e-05
0.00012059880467535277
0.00016925369698299
0.00023586884157625386
0.00024013045586135243
0.04366671108693605
0.04341254536390758
0.043853774028414186
0.043410683023129136
0.04385512180260964
0.04340780892549733