# vtk DataFile Version 2.0
HASEonGPU converted Tet4 laserPumpCladding input
ASCII
DATASET UNSTRUCTURED_GRID
POINTS 4210 double
3 0 0
1.8369701987210297e-16 3 0
-3 3.6739403974420594e-16 0
-5.5109105961630896e-16 -3 0
3 -7.3478807948841188e-16 0
1.5 0 0
1.4881720519717168 0.18799985034645639 0
1.4528747416929466 0.37303483074728216 0
1.3946647288323772 0.55218682902701688 0
1.3144600200657954 0.72263051115257304 0
1.2135254915624212 0.88167787843870971 0
1.0934529411321172 1.0268206588930329 0
0.9561359846230344 1.155769864163684 0
0.80374019246849482 1.2664918882530225 0
0.63866893734760899 1.3572405786990294 0
0.46352549156242118 1.4265847744427302 0
0.28107197187858712 1.4734308760930328 0
0.09418577929397029 1.4970400926424072 0
-0.094185779293970096 1.4970400926424072 0
-0.28107197187858723 1.4734308760930328 0
-0.46352549156242101 1.4265847744427305 0
-0.6386689373476091 1.3572405786990291 0
-0.80374019246849526 1.2664918882530225 0
-0.95613598462303462 1.155769864163684 0
-1.093452941132117 1.0268206588930333 0
-1.213525491562421 0.88167787843870982 0
-1.3144600200657952 0.72263051115257337 0
-1.394664728832377 0.55218682902701721 0
-1.4528747416929466 0.37303483074728222 0
-1.4881720519717168 0.1879998503464568 0
-1.5 1.8369701987210297e-16 0
-1.4881720519717168 -0.18799985034645644 0
-1.4528747416929466 -0.3730348307472825 0
-1.3946647288323768 -0.55218682902701743 0
-1.3144600200657957 -0.72263051115257249 0
-1.2135254915624212 -0.88167787843870959 0
-1.0934529411321172 -1.0268206588930331 0
-0.95613598462303429 -1.155769864163684 0
-0.80374019246849449 -1.2664918882530229 0
-0.63866893734760821 -1.3572405786990296 0
-0.46352549156242134 -1.4265847744427302 0
-0.28107197187858696 -1.473430876093033 0
-0.094185779293969818 -1.4970400926424072 0
0.094185779293969249 -1.4970400926424072 0
0.2810719718785864 -1.473430876093033 0
0.46352549156242084 -1.4265847744427305 0
0.63866893734760777 -1.3572405786990298 0
0.80374019246849393 -1.2664918882530234 0
0.95613598462303395 -1.1557698641636844 0
1.0934529411321168 -1.0268206588930333 0
1.213525491562421 -0.88167787843871004 0
1.3144600200657954 -0.72263051115257304 0
1.3946647288323768 -0.55218682902701799 0
1.4528747416929464 -0.37303483074728305 0
1.4881720519717168 -0.18799985034645697 0
1.5 -3.6739403974420594e-16 0
-2.9092010630146201 0.73249515884859218 0
-2.5948422592105751 -1.5055874762582662 0
-2.638638710324535 1.4274402933464378 0
-2.8978884492196491 -0.77604290239438267 0
-2.4227068937481744 -0.29854480912972997 0
-2.2388459313433096 0.80558197238431417 0
-2.1185483491509167 -2.1240887177939527 0
-2.2762777337060913 -0.88614019046409476 0
-1.8284026793996355 -0.30461628664767487 0
-2.3539448847492319 0.28920205505325541 0
-1.925117162062326 0.23371179250294496 0
-1.786888953758706 0.82090200043143891 0
-2.029363796594148 -0.52189541073442902 0
-1.629488009228552 -0.35615711274498935 0
-2.0803231070301726 -0.083492539902757262 0
-1.6755721404685429 0.20772020998593044 0
-1.9165499560764339 0.52102211743306048 0
-2.0300899814367166 1.266754822127965 0
-2.1964213531716528 2.0434610958106756 0
-1.8561330767803648 -0.91743606522273857 0
-1.589270957140853 -0.86153152545695189 0
-1.7343328997797542 -0.60722692470395634 0
-1.5664914951235849 -0.5228335341948539 0
-1.6477868617856892 -0.15715135467004851 0
-1.6437460384134761 0.051158601521915585 0
-1.8041893772262778 -0.023743408280853934 0
-1.6547987547448935 0.37371238924561423 0
-1.6180315114053807 0.5510125353778732 0
-1.5268798570482995 0.69238319934821035 0
-1.6388239287711379 1.0850038388965961 0
-1.6875760156370767 1.5197012524492868 0
-1.5593336036955092 2.5629043564563472 0
-1.4996988441497003 -2.5982500727471542 0
-1.9802297060357401 -1.3698089453659321 0
-1.5762166081711686 -1.1573249426138803 0
-1.4007627594884051 -0.9085974167883949 0
-1.4989064337745857 -0.70379764388621613 0
-1.2625610835544718 -0.40520734113723156 0
-1.325228904412973 -0.23859163392566166 0
-1.2943948053394074 -0.073335637986973831 0
-1.3427827258590763 0.089656682569852653 0
-1.2741279578802678 0.24872482112065408 0
-1.2821538783158424 0.40953240146002873 0
-1.2027516339180548 0.57198522631513882 0
-1.4812954882130449 0.84895039853631105 0
-1.3733470370259659 0.98381510339478051 0
-1.4063508735593937 1.2529923318366569 0
-1.5224835441189251 1.9183802856671823 0
-1.3734112884475305 -1.963044106645158 0
-1.6217056230882707 -1.606012273936521 0
-1.3394498385626938 -1.328073048933422 0
-1.163148119633501 -1.1842337395038438 0
-1.3070589534128838 -1.0649283111320864 0
-1.1113388727093745 -0.71495559522356988 0
-1.1950442737690117 -0.56412598609081921 0
-1.0750534249115704 -0.39661900603232197 0
-1.153617374305147 -0.2288795158674283 0
-1.0803890641793377 -0.068198157584990579 0
-1.1609975453446943 0.086397503654689151 0
-1.0640688638417983 0.24408334498195666 0
-1.1116968993602518 0.40207362957839665 0
-1.0126556824674025 0.57215597613873848 0
-1.1166879670667695 0.72548496557727571 0
-1.0215992045429356 0.87877978378487465 0
-1.2449316405281541 1.0936968153748481 0
-1.2528829909072468 1.4890660584210109 0
-1.0178460593377705 2.2349390410799095 0
-1.1799297904464485 -1.5674061482718298 0
-1.053995649329464 -1.3194350766749008 0
-0.90549945501362272 -0.99679158350665542 0
-1.0121778523560141 -0.85565639728473197 0
-0.90058892009910052 -0.70847393739939535 0
-0.99455595253628404 -0.55670121090994473 0
-0.88085370431514531 -0.3937277336806414 0
-0.96679865129551756 -0.22917106497450077 0
-0.87473932892886563 -0.067133388022849017 0
-0.96287522754762223 0.089737035928369666 0
-0.86096791778617987 0.25359720820182052 0
-0.9291275978649064 0.41075915724199275 0
-0.82710198310864169 0.5901914883258691 0
-0.91926261194328718 0.74398581909229744 0
-0.87753040470528454 0.9586157336022012 0
-1.1390787781582592 1.2385909081969002 0
-0.99471085676146187 1.3503173090428844 0
-1.1194912599855567 1.7930890994062907 0
-0.80032557569043294 2.8912763624767202 0
-0.76650813498443493 -2.9004250157097853 0
-0.92596498484480139 -2.2420169147785218 0
-0.93065761143326786 -1.7641322268359176 0
-0.76167743586714198 -1.5103902682172938 0
-0.91978973580081902 -1.4439707153547374 0
-0.7471457695070477 -1.0596134169643181 0
-0.79988562703292954 -0.86114847093426927 0
-0.69545438153746431 -0.71156615669761192 0
-0.79144204845223087 -0.55273830651967704 0
-0.68372981412882372 -0.39127236548686906 0
-0.77389003567853221 -0.22851799349297833 0
-0.6758485354502406 -0.062509188282699774 0
-0.76578475197800677 0.097233351211423291 0
-0.66591199087864228 0.26899409487517151 0
-0.74487864822602201 0.4295023019591197 0
-0.6541142583383317 0.62066143154172349 0
-0.75580089750440516 0.79138852320325104 0
-0.67091592346472706 0.95464566450371424 0
-0.77487765708040479 1.0995834017989343 0
-0.79869857593483573 1.4387056306916721 0
-0.93665607595392431 1.5546038975791305 0
-0.77864996168239464 1.8161318328826686 0
-0.61353808585111624 -1.9912892840373866 0
-0.62323154969557781 -1.7089059084720191 0
-0.57476832037177294 -1.5368146313824718 0
-0.63793544677181879 -1.1830000433905992 0
-0.52751653788231179 -1.0426931925797678 0
-0.62017295488032353 -0.89424936878366901 0
-0.50669515487228767 -0.72846919149549239 0
-0.59154985920645597 -0.55404564522811806 0
-0.48878995257535085 -0.38914272132141131 0
-0.58006441956412302 -0.22480175810960359 0
-0.48164302349733218 -0.055593658233160488 0
-0.57293926956204289 0.10779851958094987 0
-0.47652327682058099 0.28339409608037769 0
-0.56402551364572673 0.45082301866678548 0
-0.46762066634198834 0.6261494430069231 0
-0.56497407774447306 0.7934328578233576 0
-0.48961916673243916 0.97691456553315903 0
-0.60618811689263163 1.1497232480528154 0
-0.4742094490475352 1.2590003451647966 0
-0.66463891755205384 1.5629920717612207 0
-0.36131365857486558 -2.3511329639786838 0
-0.34793084410212505 -1.8626017024234176 0
-0.39289751616072954 -1.6245634669036431 0
-0.31463216144960332 -1.2915179593386732 0
-0.46642659870548159 -1.2272171454012473 0
-0.33491084033783763 -1.0670527789485813 0
-0.41631791924388989 -0.89039663954563619 0
-0.31181964526899975 -0.7222331744974414 0
-0.40114756376878036 -0.55847270264344362 0
-0.29780899185629278 -0.38891562830600757 0
-0.38777029034256993 -0.22078898707456487 0
-0.29014568668542778 -0.050365931330651592 0
-0.3829147870845242 0.11678225684600209 0
-0.28603439902696814 0.28874089935748026 0
-0.37652314225038691 0.45723474206909159 0
-0.28285935985123906 0.634056233724409 0
-0.3812739593352989 0.80596000288030079 0
-0.28432579640457945 0.96717187850060327 0
-0.38401137154317538 1.1193412798190607 0
-0.28929041088106155 1.2996653185743416 0
-0.48649810464939913 1.5786338372237843 0
-0.50956987991026059 1.802700551049921 0
-0.10156301702722029 -1.9776698354740183 0
-0.18850645867119584 -1.6711101166352897 0
-0.12491842961146801 -1.333492551777415 0
-0.19531088201376173 -1.165235070178507 0
-0.11396487659381563 -1.0169604998755526 0
-0.22711736892693501 -0.88992552182652396 0
-0.11845331805017587 -0.72069302201854535 0
-0.20739099047019754 -0.55455554346669034 0
-0.10550087553679044 -0.38644865819451252 0
-0.19736124887727366 -0.21878420354912947 0
-0.099429935623401258 -0.048143548431330535 0
-0.19246831389354235 0.12043663192685652 0
-0.096305895709434486 0.29164933055122599 0
-0.18946837129989327 0.46219349980575375 0
-0.093646175437730308 0.632792208494797 0
-0.18750683698080658 0.80307016294956868 0
-0.093180419620707694 0.97837378048707846 0
-0.18910737309012304 1.1435649848320233 0
-0.099982572689058719 1.3266515631625531 0
-0.32585079229692676 1.6531691556466916 0
-0.25725985857269978 1.9385028597941227 0
-0.58126105676834439 2.18968912022916 0
0.72890636030000433 -2.9101023143834968 0
0.13870214135764744 -2.3883760262207527 0
0.0063019320178563437 -1.6943844456388202 0
0.066747659465658471 -1.3392247008584173 0
-0.0043774832355384184 -1.1757340807926229 0
0.091920900400353861 -1.0209382459652763 0
-0.01412700401732131 -0.86652712359602013 0
0.086764461817082472 -0.71218318669596081 0
[...]
POINT_DATA 4210
SCALARS betaCells double 1
LOOKUP_TABLE default
5.203147362701879e-05
5.296569401038838e-05
5.132593259822503e-05
5.1363083535178384e-05
0.0
0.017472637338862316
0.017621295359700986
0.017629072337074753
0.017628350455267665
0.017621036585261377
0.01762623100509755
0.01762331997705859
0.017624641421434883
0.017619964225862372
0.017625150361266693
0.01762768598365736
0.01761989814872926
0.017629867361818503
0.017633663568564023
0.017627135139083743
0.0176276872931072
0.01762715168525518
0.017626422905884738
0.017625538683788
0.017628487422594798
0.017625154206855276
0.017624154685267193
0.017630170009819382
0.01762571716889245
0.01762462093414641
0.017626705414485848
0.017628316464925915
0.017629283488215266
0.017628523601975556
0.017622863070714766
0.017627274544436706
0.01762726926347851
0.017621727502030355
0.01762748385609617
0.017625004550420972
0.017624008142265432
0.01762521535646347
0.01762864147606188
0.01762388107379886
0.01762207792040381
0.017625591504042935
0.017628679250394765
0.017626986825923795
0.01763903971532935
0.017623293941179046
0.017626362573023344
0.01762074406566891
0.017624049298821408
0.017622481008658573
0.017621554564450057
0.017620686409570662
5.214367662210883e-05
5.1918337381376905e-05
5.061556240653556e-05
5.204098888838214e-05
7.075627298358158e-05
7.516489551521733e-05
5.225979736624646e-05
6.948983672363062e-05
0.00011317949284066508
7.328755680411554e-05
0.00010428971861693206
0.00010139166385613604
8.797112440381904e-05
0.0001460096607263225
9.213612879381726e-05
0.00015237513414562167
9.980635185385771e-05
7.440239638032095e-05
5.180946932776489e-05
9.136471175368583e-05
0.00012065328362742287
0.00011411066431759725
0.00014882417427582203
0.0001497950040717967
0.00015284664607262077
0.0001196562592049493
0.00013858550805804322
0.00013932544126654732
0.00014501153070455735
0.00010091713320039983
7.799220479831106e-05
5.1232519602860216e-05
5.2860009445574116e-05
7.285061027183167e-05
0.00010296780775792356
0.00014577347070844315
0.0001485225166844411
0.04662366404849514
0.04634484890202053
0.04682077335993716
0.04635304435018887
0.04680505052786296
0.046347979710985865
0.04655550232997606
0.00013779279514521014
0.00014313157671066505
0.0001108954026167644
7.185683970473967e-05
7.407037023908119e-05
7.811477746214328e-05
0.00010823511013392476
0.00014636359190319686
0.00014619609563477955
0.04666034338714717
0.04665960505294753
0.046962244036120614
0.046957479874417674
0.04696396619665061
0.04696248471630309
0.046966341803786865
0.0469539892348144
0.04695826628602158
0.0465542205286166
0.046318349605990294
0.00014883363708167774
0.00010064883748054005
6.823779395249299e-05
0.00010006024401622061
0.0001377013842353679
0.04633863536552636
0.04664097975504311
0.04696177597307544
0.04695783210406845
0.0469687778754235
0.04696990885088309
0.04696938595350103
0.04696765821716484
0.04696926115104236
0.046964293760821146
0.046965982658226844
0.04695752547657447
0.04679933925641068
0.00014477587857690224
0.00014479605295884192
8.859342666278216e-05
5.089261667565638e-05
5.143593525388295e-05
7.136135093361382e-05
9.925716337582445e-05
0.00014198977891354502
0.0001361132820428444
0.046814952311516236
0.046987012781372316
0.04697036047914824
0.04696549420840994
0.04697061685773671
0.0469835862928774
0.04699225096500002
0.046975467355650995
0.046985666770254564
0.04697457087582725
0.0469672674110527
0.04696287282642
0.04695484121231276
0.046361928355668984
0.00014972818892999636
0.00011816025865825331
9.76935288112863e-05
9.31735916491673e-05
0.00011711919183710054
0.00015021548261071998
0.04638178306237358
0.046952844631546656
0.04696208862823351
0.04696774884801759
0.04698156283330223
0.04697649945586118
0.04697497865120855
0.04698165477433655
0.046975631214398114
0.0469902836068438
0.04697671496357715
0.04698758040710964
0.046968111219699946
0.04696494715629653
0.04680118218099293
0.046357975667542906
0.00014155100431832167
7.32725090746472e-05
0.000110823956627329
0.0001454451857496638
0.046581584912196064
0.046725292811175094
0.04696383092872711
0.046969507646940634
0.046974086461187475
0.04697713451108519
0.04698018986222342
0.04698226654662895
0.04698279947664675
0.046980190015818525
0.046986936790166016
0.046977077321752436
0.04697554908035333
0.046971049762886616
0.046966891631574
0.046955943883431536
0.04655858497046576
0.00014763342670480836
0.00011006663297723866
9.937576922334826e-05
0.00014803663338904644
0.04645490774019952
0.0469560748438974
0.04696688986576583
0.046970729781818654
0.04697408974256491
0.04698058805663084
0.04698432681987394
0.04699679981661661
0.04698457710379181
0.04699079562944096
0.04698455101879091
0.04697887863392409
0.04698188335004591
0.046969136542635036
0.046969116053055995
0.04695881547102579
0.04657830945550262
0.00013822468135782319
0.00010315821043496282
8.008489664012704e-05
5.316434463719242e-05
7.494805743424768e-05
0.0001428422106449498
0.04643579948231047
0.046953259974440095
0.04696770102645279
0.04697101573222337
0.04698114435946665
0.04697927686935838
0.04697715109812323
0.04697860083473244
0.046979539852763666
0.04698463082765739
0.04698907751763013
0.04697866596140016
0.04697761658702494
0.04697072966472274
0.04696816795346556
0.0469613872346666
0.04656922228038334
0.00014546498331657719
0.00011666520802798143
7.073956008997344e-05
0.00010253767245908655
0.0001451734674657572
0.04615997657414354
0.04694910609516383
0.04697136977899523
0.04696632071281579
0.046979701774697624
0.046980831839323736
0.046982255161381395
0.04698019930378722
0.04697857237219126
0.04698432254901852
0.046977850878902085
0.0469775691312241
0.04698534343102556
0.04697727034942077
0.046963880675420594
0.04695247985290073
0.04655624891469676
0.00015136365422144965
0.00014209695860276984
7.355831266784682e-05
7.061135103177605e-05
0.00011544072996601113
0.0001508739708381618
0.04682312057405294
0.04695940043911979
0.046968953676629746
0.04700082119535766
0.04697859844976508
0.046976715637877586
0.04698271369548147
0.04698607377900946
0.04698382083603326
0.04697624889515255
0.04697826544157968
0.04697307420779193
0.046971527915396674
0.046963854324275946
0.04695570731657212
0.04636702399307565
0.0001508381996858027
0.00012056043119905912
0.00010625212084822987
8.816775224950604e-05
8.039963515947952e-05
0.0001018248267961998
0.00014533900755844484
0.0001271464115118949
0.04652474167876908
0.04695399330556353
0.04697132733683038
0.04697166331030721
0.0469756731283751
0.046974232346213826
0.0469847986281275
0.04697569714174784
0.0469767306983848
0.04697414686449837
0.04697474170662311
0.04697060277423247
0.04696690198914716
0.04695702296978744
0.04679943042380376
0.0001472002356763194
0.00014836104949115243
9.281333094573374e-05
9.095258638113692e-05
0.0001480087520873562
0.04628468837936067
0.04657565418953492
0.04695645015990135
0.04696174226041788
0.046974389974330504
0.047005283600305044
0.046980286460083925
0.04697260968888075
0.04697432378251115
0.046970504461255363
0.04697126254793462
0.046968806945323335
0.04696247048902245
0.04679819774724782
0.04636784862570026
0.00014741823932103154
0.00011275831232267078
7.12535536121094e-05
0.00010513835443841523
0.00014744975276125358
0.00015132103512671086
0.04664101948460306
0.04666523042752323
0.046971984473262035
0.046961184409115536
0.046967390143116766
0.04696126734133204
0.046965972047248956
0.046959709837336036
0.046967400375587956
0.04695632141601232
0.04695805233308451
0.046322914469008
0.00015375337783766468
0.00011162325186597263
8.89546761998964e-05
5.2623825167999963e-05
5.1078375103569355e-05
7.374348616685913e-05
0.0001162083049193923
0.00011004747957933455
0.00014680984433539383
0.00015237539843033018
0.04666354412886003
0.0466189953488077
0.04695297095748427
0.046817243199171875
0.04696295365686872
0.046806437403229095
0.04695580766692122
0.0465562052395597
0.046557924966389296
0.0001420789006335377
0.00014683747794241956
0.00011770508166108132
5.133200282832218e-05
8.797268685625581e-05
8.884614206569345e-05
0.00011801492080397281
0.00013739067288746248
0.00014874960174956272
0.0001540688099222516
0.04634645034812249
0.00014534595696914825
0.04636005253542455
0.00014986775279203
0.046349642370593365
0.0001454765300796513
0.00015205329673650622
0.00010230908627966595
9.095629764449488e-05
6.944779496730123e-05
0.00010340312536602221
0.00011485800495024458
0.00011433875549247651
0.00014615109138482225
0.00011508637155374182
0.00015430361703244218
0.00014698540155937048
0.00011070404441460077
0.00011663713269630734
5.146048089101834e-05
6.84977159174105e-05
9.018938228817995e-05
0.00013342959733163103
0.00011504299195687896
7.022019083249143e-05
9.089845491315539e-05
7.084902633451863e-05
9.216542245286e-05
9.816790187219837e-05
8.974212140045553e-05
5.336721757670574e-05
7.226816775856887e-05
7.284874132140387e-05
7.104142325914403e-05
5.329958264523335e-05
7.113387212118004e-05
5.2769601192196e-05
5.1556664870717176e-05
5.216993279429456e-05
5.423100598202721e-05
5.2991425129168124e-05
5.266760263439817e-05
4.984917079114688e-05
0.0
0.015101363970835573
0.015262737388462634
0.015259421741871025
0.015259103905356109
0.015269390775467153
0.015257430627676323
0.015289800469861909
0.015258877451201507
0.01525881866825033
0.01525554909282502
0.015262570880943748
0.015265799748808222
0.015257694291385985
0.01525471358309181
0.015263957362923259
0.015265403809408686
0.015258513101587457
0.015255359437314552
0.015285502946682683
0.0152581327956944
0.015270925965394935
0.015258740358941841
0.015261629252669471
0.015254883555927284
0.015256939417239837
0.01525968211961631
0.015255911394209863
0.015257283602480923
0.0152663984904528
0.015260666342284231
0.015259933271328022
0.015254510727909489
0.015262241275791837
0.015259754314973445
0.015258981544866865
0.01526050864538096
0.015259203113035183
0.015256295824902294
0.0152549532086949
0.015258059506791547
0.015260862647046163
0.015259562696742264
0.015252763722248347
0.015263847256750606
0.01525947633450284
0.015258710623604746
0.015255110455216717
0.015256525061448672
0.015258578966572942
0.01525990302913735
0.015262568366225845
5.0207061008937095e-05
5.2356412630876365e-05
5.184778936752853e-05
5.2634174228055754e-05
7.12147977172161e-05
7.421051608244724e-05
5.260460319842524e-05
7.10446014747363e-05
0.00011038324773025778
7.436387600832304e-05
0.00010206718107975855
0.00010245416183418801
9.129849247450175e-05
0.0001440937672297933
9.288360735773648e-05
0.00014300763065644252
9.751627627812786e-05
7.399819232790662e-05
5.162399089558499e-05
9.404170742605009e-05
0.00011828483464245276
0.00011279664450933481
0.00015536687636514095
0.00014803217329058098
0.0001507794226454935
0.00011786464138100176
0.00013810855104201975
0.0001378041612060883
0.0001482618662105992
0.0001011112770474146
7.901409900150816e-05
5.301363979278917e-05
5.2522882249938236e-05
7.226704093946851e-05
9.97608170634184e-05
0.00014390245767097157
0.0001495004394998336
0.04050015829536306
0.04026229038235936
0.04068019040397192
0.040266299008082304
0.04067022680933285
0.04026886445101244
0.04044923856131462
0.0001394593760441042
0.00014036340527244154
0.00010895587053244473
7.068876344239354e-05
7.339089788297712e-05
7.73768268946826e-05
0.00011141255375058564
0.00015079822168474234
0.00014147162648583034
0.040538657381044126
0.040540671830945924
0.04081640374238064
0.040808475814477475
0.040808614116451085
0.04080414181711009
0.04080940498280633
0.04079643706455105
0.04080400641972298
0.0404463756075651
0.04024081416303563
0.0001481396550856985
0.00010207594350590416
7.025541601352381e-05
0.00010230717706177322
0.00014190686230578176
0.04025213631373508
0.040505360041770425
0.040819782769148785
0.04080646559493688
0.04081725483302782
0.040813592020132614
0.04081903644819655
0.04082544633496181
0.040820576992214995
0.04083636618224778
0.040825266312248296
0.040802188082490205
0.04066270835248302
0.00014208586603989655
0.0001417729835297473
8.953860224582004e-05
5.2612659609573725e-05
5.186387173408131e-05
7.241654844640006e-05
9.899754286696349e-05
0.0001430906846336765
0.00013680917907258952
0.040675150796393326
0.04079862050666497
0.04081628540772888
0.040815287159477236
0.04082503934465535
0.040828863242410404
0.040887619854992216
0.040880674066750194
0.04082541622610472
0.04082977211608332
0.040820237449758705
0.040817395125278745
0.040804818221175015
0.040279571962201666
0.00015280879975822397
0.00011971084888220432
9.971621751030533e-05
9.423899333226211e-05
0.00011807865234877803
0.0001542630051896829
0.040291738905098455
0.040810959895002205
0.04081470776771352
0.04082219125035015
0.04082471314755895
0.04087035054929651
0.04082402826412231
0.04083249902629617
0.04083663197454482
0.040837793192118714
0.04084057930073516
0.040832657220871815
0.04081477638095474
0.04081575205146779
0.04066844726637473
0.04027470098385762
0.00014002427749950594
7.325678840131136e-05
0.00010919365376030996
0.00014307458263768498
0.040471013776155584
0.040598058738894716
0.040819006797494145
0.04081954131995762
0.04082086721366232
0.040821732799465604
0.04082987877620567
0.04083633044414686
0.04083518030561103
0.04084294249930905
0.040835888468250335
0.04082905519508641
0.040824159245598894
0.04081899328166685
0.040812497863474316
0.04080061662320149
0.040452324456465516
0.00014761306396976896
0.00011092380933825441
0.00010090156290043911
0.0001420604761173259
0.04036356076308651
0.04080405186821019
0.04081230835133375
0.040816873691909776
0.04083148943766955
0.0408279838521848
0.040834001342938575
0.040834152574749774
0.04083584955939515
0.04083075621009872
0.04083265906404659
0.04082910011587764
0.04083058147216423
0.040832960979644936
0.0408112649903005
0.04081309260676923
0.040459499680811466
0.00014015668198309798
9.99252795030121e-05
7.897018994487999e-05
5.312302176283468e-05
7.303672487123843e-05
0.0001407103113161437
0.040339171340727724
0.040803622001139433
0.04081085282826789
0.04082026818109048
0.04082689958465305
0.04083084184708714
0.04083005742012264
0.04083439082976353
0.04084026973215661
0.04084192840215922
0.04083526921902181
0.04082659241000486
0.040829989406619055
0.040825190111073384
0.040811523427758664
0.04080841677425627
0.04045978444937524
0.00014221114700396515
0.00011796750096803213
7.223972453061347e-05
0.00010454450458430582
0.00014403347237740331
0.040109140209893965
0.04080046136015309
0.04081892987168718
0.04082004270190441
0.04082558622935702
0.04083520917951407
0.04083353045080289
0.040830467618371426
0.0408318043215876
0.04083462549738033
0.04083569627928911
0.0408371351047001
0.04082171893387614
0.04082021879518423
0.04081236273887039
0.04080316845698449
0.04044738552777646
0.00015117346647011348
0.00014353030278899833
7.186375727613602e-05
7.03892402909922e-05
0.00011423891643015358
0.00014591275004131632
0.04068450093524539
0.040803708477795464
0.04081638942098857
0.04081884497648537
0.04083143633535383
0.04083408428383739
0.04083367121498175
0.040834549932210785
0.04083583774853511
0.0408273147395907
0.04083431240945531
0.04086125135604087
0.04081829626942126
0.04081538577963376
0.040801383285811406
0.040275448298258326
0.0001452361649674011
0.00011986725108167609
0.00010396133321188825
8.891042019039348e-05
7.841801719350517e-05
0.00010303624200697004
0.00014851738167771615
0.0001271702148017903
0.04042522166279835
0.04080174870355183
0.04082160658939084
0.04081841336850941
0.040822827210011084
0.04082377134373938
0.04083052790846051
0.040825770864487014
0.04082430464790805
0.04083107510548155
0.0408288143571049
0.04081826455174497
0.040835873733865116
0.04080882447887703
0.04066080431633176
0.00014456936521679075
0.00015070035679874352
9.179002987394266e-05
9.107983826262008e-05
0.0001474232518938681
0.040214414847073096
0.04046919461239796
0.04081161344633638
0.04081252225549055
0.04082023810943909
0.040817682706513855
0.040823561425821345
0.04082979737739886
0.040824669283485306
0.04082118696141054
0.040825230757223746
0.04081771237786098
0.04081054503776205
0.040669616657632385
0.04028244771320833
0.000148133744382216
0.00010983227445110334
6.99866221026093e-05
0.00010508125403174633
0.00014786907062831414
0.0001499151389894697
0.04053432819307068
0.04055152626533895
0.04080717866411304
0.040808625646566565
0.04081564115708558
0.04080911812942375
0.040830226868931556
0.04081398844430103
0.04081609125069615
0.04080445445652148
0.04081589482645261
0.040245628294302616
0.00014789302400972424
0.00011439766625652065
8.877624170227299e-05
5.317035653525647e-05
5.272299677217199e-05
7.244973468749957e-05
0.00011872468341835047
0.0001105148327698858
0.00014471336175405318
0.00015315539348446675
0.040546487025828706
0.04050935458522427
0.04080212754848173
0.04067801123841633
0.04081409532188228
0.04066990651101194
0.040799478522025236
0.04045183045890092
0.04045054108707276
0.00014182481131575262
0.0001454142124872932
0.00011748819710886887
5.21443488981548e-05
9.056645017204337e-05
8.799622656327394e-05
0.00011725354434463181
0.00013448917602344046
0.00015060550613058438
0.00014806423972167016
0.040263894918584654
0.00014369821817665222
0.0402766948062441
0.00015071488825150385
0.0402660205466632
0.00014584873733439896
0.00015767730006882694
0.00010265576581323067
8.88987558991466e-05
6.976785629496915e-05
0.00010014282061046004
0.00011550696043260874
0.00011366926947898128
0.00016086421884565615
0.00011528056988851422
0.0001510061072933113
0.000144609947895478
0.00011162909608999696
0.00011923277257296994
5.37609835367483e-05
7.244254093223422e-05
9.041410252697957e-05
0.00013285237495467444
0.0001116509264844444
6.981284865893107e-05
8.971340539180944e-05
7.153189851557563e-05
9.460310295805182e-05
9.661294319793996e-05
8.942796410697699e-05
5.201198486429597e-05
7.453344220882151e-05
7.412626958581606e-05
6.938395150633803e-05
5.2026309808298305e-05
6.927238918274415e-05
5.036282448480332e-05
5.187354657470566e-05
5.136647166154239e-05
5.169823134534866e-05
5.139940377970523e-05
5.166393429749845e-05
5.174683149001461e-05
0.0
0.013135649903358483
0.013292305593641775
0.013289561008979076
0.013293880367764153
0.013295919972215567
0.01329230152470258
0.01330192926781175
0.013293184888200985
0.013294705867153766
0.013293212876029803
0.0132943704143593
0.013293663623532195
0.01329611926091689
0.013298615340138886
0.01329668246323601
0.013295806368386544
0.013293481548237032
0.01328996915763338
0.013296608925650155
0.013289694500602075
0.013297066035002683
0.013293604388689447
0.013294478990297834
0.013297675214320443
0.01328855507357419
0.013293221736725444
0.013292022903154592
0.013301266161170186
0.013291150659409954
0.013290115649777749
0.013293549382227342
0.013292041742853384
0.013292419512897034
0.013297236567128685
0.01329199859327307
0.013300792502192066
0.013296730340344641
0.013297380740742024
0.013294289059395576
0.01329734508332266
0.013296967225159398
0.01329238935508149
0.013293614974266482
0.013291591233920482
0.013291589397599562
0.013291771740468044
0.013292292577771174
0.013294781270371566
0.013296664450936423
0.013293674590874948
0.013292196439160148
5.221094985434974e-05
5.177022168766341e-05
5.240757061888446e-05
5.1100606461519176e-05
7.135503891034342e-05
7.372022472073599e-05
5.1514523180789065e-05
6.992841844488426e-05
0.00011227686505404179
7.58873250297051e-05
0.00010093747376949763
0.00010247043879225282
9.10013450648311e-05
0.0001413346327193369
9.095898325727315e-05
0.00014445951952375685
9.77398808130462e-05
7.099962518207313e-05
5.2854265071799016e-05
9.179269954270896e-05
0.00011715041393452075
0.00011265104817073375
0.00014725386034635473
0.00014431295991201477
0.00014658604158271127
0.00011883017597653079
0.00013941367159068927
0.0001363232073822208
0.0001456768672314187
0.00010202633499964856
7.988710411227013e-05
5.0210503617583904e-05
5.3036826843037e-05
7.307709123261251e-05
0.00010208950529998296
0.00014258520358117718
0.00014586007899010156
0.03539674438222304
0.035191978543728276
0.035548347611414836
0.03518651083743374
0.035550767249681904
0.03518596852469109
0.03535368283769745
0.00013515173266163432