# vtk DataFile Version 2.0
HASEonGPU converted Tet4 laserPumpCladding input
ASCII
DATASET UNSTRUCTURED_GRID
POINTS 4210 double
3 0 0
1.8369701987210297e-16 3 0
-3 3.6739403974420594e-16 0
-5.5109105961630896e-16 -3 0
3 -7.3478807948841188e-16 0
1.5 0 0
1.4881720519717168 0.18799985034645639 0
1.4528747416929466 0.37303483074728216 0
1.3946647288323772 0.55218682902701688 0
1.3144600200657954 0.72263051115257304 0
1.2135254915624212 0.88167787843870971 0
1.0934529411321172 1.0268206588930329 0
0.9561359846230344 1.155769864163684 0
0.80374019246849482 1.2664918882530225 0
0.63866893734760899 1.3572405786990294 0
0.46352549156242118 1.4265847744427302 0
0.28107197187858712 1.4734308760930328 0
0.09418577929397029 1.4970400926424072 0
-0.094185779293970096 1.4970400926424072 0
-0.28107197187858723 1.4734308760930328 0
-0.46352549156242101 1.4265847744427305 0
-0.6386689373476091 1.3572405786990291 0
-0.80374019246849526 1.2664918882530225 0
-0.95613598462303462 1.155769864163684 0
-1.093452941132117 1.0268206588930333 0
-1.213525491562421 0.88167787843870982 0
-1.3144600200657952 0.72263051115257337 0
-1.394664728832377 0.55218682902701721 0
-1.4528747416929466 0.37303483074728222 0
-1.4881720519717168 0.1879998503464568 0
-1.5 1.8369701987210297e-16 0
-1.4881720519717168 -0.18799985034645644 0
-1.4528747416929466 -0.3730348307472825 0
-1.3946647288323768 -0.55218682902701743 0
-1.3144600200657957 -0.72263051115257249 0
-1.2135254915624212 -0.88167787843870959 0
-1.0934529411321172 -1.0268206588930331 0
-0.95613598462303429 -1.155769864163684 0
-0.80374019246849449 -1.2664918882530229 0
-0.63866893734760821 -1.3572405786990296 0
-0.46352549156242134 -1.4265847744427302 0
-0.28107197187858696 -1.473430876093033 0
-0.094185779293969818 -1.4970400926424072 0
0.094185779293969249 -1.4970400926424072 0
0.2810719718785864 -1.473430876093033 0
0.46352549156242084 -1.4265847744427305 0
0.63866893734760777 -1.3572405786990298 0
0.80374019246849393 -1.2664918882530234 0
0.95613598462303395 -1.1557698641636844 0
1.0934529411321168 -1.0268206588930333 0
1.213525491562421 -0.88167787843871004 0
1.3144600200657954 -0.72263051115257304 0
1.3946647288323768 -0.55218682902701799 0
1.4528747416929464 -0.37303483074728305 0
1.4881720519717168 -0.18799985034645697 0
1.5 -3.6739403974420594e-16 0
-2.9092010630146201 0.73249515884859218 0
-2.5948422592105751 -1.5055874762582662 0
-2.638638710324535 1.4274402933464378 0
-2.8978884492196491 -0.77604290239438267 0
-2.4227068937481744 -0.29854480912972997 0
-2.2388459313433096 0.80558197238431417 0
-2.1185483491509167 -2.1240887177939527 0
-2.2762777337060913 -0.88614019046409476 0
-1.8284026793996355 -0.30461628664767487 0
-2.3539448847492319 0.28920205505325541 0
-1.925117162062326 0.23371179250294496 0
-1.786888953758706 0.82090200043143891 0
-2.029363796594148 -0.52189541073442902 0
-1.629488009228552 -0.35615711274498935 0
-2.0803231070301726 -0.083492539902757262 0
-1.6755721404685429 0.20772020998593044 0
-1.9165499560764339 0.52102211743306048 0
-2.0300899814367166 1.266754822127965 0
-2.1964213531716528 2.0434610958106756 0
-1.8561330767803648 -0.91743606522273857 0
-1.589270957140853 -0.86153152545695189 0
-1.7343328997797542 -0.60722692470395634 0
-1.5664914951235849 -0.5228335341948539 0
-1.6477868617856892 -0.15715135467004851 0
-1.6437460384134761 0.051158601521915585 0
-1.8041893772262778 -0.023743408280853934 0
-1.6547987547448935 0.37371238924561423 0
-1.6180315114053807 0.5510125353778732 0
-1.5268798570482995 0.69238319934821035 0
-1.6388239287711379 1.0850038388965961 0
-1.6875760156370767 1.5197012524492868 0
-1.5593336036955092 2.5629043564563472 0
-1.4996988441497003 -2.5982500727471542 0
-1.9802297060357401 -1.3698089453659321 0
-1.5762166081711686 -1.1573249426138803 0
-1.4007627594884051 -0.9085974167883949 0
-1.4989064337745857 -0.70379764388621613 0
-1.2625610835544718 -0.40520734113723156 0
-1.325228904412973 -0.23859163392566166 0
-1.2943948053394074 -0.073335637986973831 0
-1.3427827258590763 0.089656682569852653 0
-1.2741279578802678 0.24872482112065408 0
-1.2821538783158424 0.40953240146002873 0
-1.2027516339180548 0.57198522631513882 0
-1.4812954882130449 0.84895039853631105 0
-1.3733470370259659 0.98381510339478051 0
-1.4063508735593937 1.2529923318366569 0
-1.5224835441189251 1.9183802856671823 0
-1.3734112884475305 -1.963044106645158 0
-1.6217056230882707 -1.606012273936521 0
-1.3394498385626938 -1.328073048933422 0
-1.163148119633501 -1.1842337395038438 0
-1.3070589534128838 -1.0649283111320864 0
-1.1113388727093745 -0.71495559522356988 0
-1.1950442737690117 -0.56412598609081921 0
-1.0750534249115704 -0.39661900603232197 0
-1.153617374305147 -0.2288795158674283 0
-1.0803890641793377 -0.068198157584990579 0
-1.1609975453446943 0.086397503654689151 0
-1.0640688638417983 0.24408334498195666 0
-1.1116968993602518 0.40207362957839665 0
-1.0126556824674025 0.57215597613873848 0
-1.1166879670667695 0.72548496557727571 0
-1.0215992045429356 0.87877978378487465 0
-1.2449316405281541 1.0936968153748481 0
-1.2528829909072468 1.4890660584210109 0
-1.0178460593377705 2.2349390410799095 0
-1.1799297904464485 -1.5674061482718298 0
-1.053995649329464 -1.3194350766749008 0
-0.90549945501362272 -0.99679158350665542 0
-1.0121778523560141 -0.85565639728473197 0
-0.90058892009910052 -0.70847393739939535 0
-0.99455595253628404 -0.55670121090994473 0
-0.88085370431514531 -0.3937277336806414 0
-0.96679865129551756 -0.22917106497450077 0
-0.87473932892886563 -0.067133388022849017 0
-0.96287522754762223 0.089737035928369666 0
-0.86096791778617987 0.25359720820182052 0
-0.9291275978649064 0.41075915724199275 0
-0.82710198310864169 0.5901914883258691 0
-0.91926261194328718 0.74398581909229744 0
-0.87753040470528454 0.9586157336022012 0
-1.1390787781582592 1.2385909081969002 0
-0.99471085676146187 1.3503173090428844 0
-1.1194912599855567 1.7930890994062907 0
-0.80032557569043294 2.8912763624767202 0
-0.76650813498443493 -2.9004250157097853 0
-0.92596498484480139 -2.2420169147785218 0
-0.93065761143326786 -1.7641322268359176 0
-0.76167743586714198 -1.5103902682172938 0
-0.91978973580081902 -1.4439707153547374 0
-0.7471457695070477 -1.0596134169643181 0
-0.79988562703292954 -0.86114847093426927 0
-0.69545438153746431 -0.71156615669761192 0
-0.79144204845223087 -0.55273830651967704 0
-0.68372981412882372 -0.39127236548686906 0
-0.77389003567853221 -0.22851799349297833 0
-0.6758485354502406 -0.062509188282699774 0
-0.76578475197800677 0.097233351211423291 0
-0.66591199087864228 0.26899409487517151 0
-0.74487864822602201 0.4295023019591197 0
-0.6541142583383317 0.62066143154172349 0
-0.75580089750440516 0.79138852320325104 0
-0.67091592346472706 0.95464566450371424 0
-0.77487765708040479 1.0995834017989343 0
-0.79869857593483573 1.4387056306916721 0
-0.93665607595392431 1.5546038975791305 0
-0.77864996168239464 1.8161318328826686 0
-0.61353808585111624 -1.9912892840373866 0
-0.62323154969557781 -1.7089059084720191 0
-0.57476832037177294 -1.5368146313824718 0
-0.63793544677181879 -1.1830000433905992 0
-0.52751653788231179 -1.0426931925797678 0
-0.62017295488032353 -0.89424936878366901 0
-0.50669515487228767 -0.72846919149549239 0
-0.59154985920645597 -0.55404564522811806 0
-0.48878995257535085 -0.38914272132141131 0
-0.58006441956412302 -0.22480175810960359 0
-0.48164302349733218 -0.055593658233160488 0
-0.57293926956204289 0.10779851958094987 0
-0.47652327682058099 0.28339409608037769 0
-0.56402551364572673 0.45082301866678548 0
-0.46762066634198834 0.6261494430069231 0
-0.56497407774447306 0.7934328578233576 0
-0.48961916673243916 0.97691456553315903 0
-0.60618811689263163 1.1497232480528154 0
-0.4742094490475352 1.2590003451647966 0
-0.66463891755205384 1.5629920717612207 0
-0.36131365857486558 -2.3511329639786838 0
-0.34793084410212505 -1.8626017024234176 0
-0.39289751616072954 -1.6245634669036431 0
-0.31463216144960332 -1.2915179593386732 0
-0.46642659870548159 -1.2272171454012473 0
-0.33491084033783763 -1.0670527789485813 0
-0.41631791924388989 -0.89039663954563619 0
-0.31181964526899975 -0.7222331744974414 0
-0.40114756376878036 -0.55847270264344362 0
-0.29780899185629278 -0.38891562830600757 0
-0.38777029034256993 -0.22078898707456487 0
-0.29014568668542778 -0.050365931330651592 0
-0.3829147870845242 0.11678225684600209 0
-0.28603439902696814 0.28874089935748026 0
-0.37652314225038691 0.45723474206909159 0
-0.28285935985123906 0.634056233724409 0
-0.3812739593352989 0.80596000288030079 0
-0.28432579640457945 0.96717187850060327 0
-0.38401137154317538 1.1193412798190607 0
-0.28929041088106155 1.2996653185743416 0
-0.48649810464939913 1.5786338372237843 0
-0.50956987991026059 1.802700551049921 0
-0.10156301702722029 -1.9776698354740183 0
-0.18850645867119584 -1.6711101166352897 0
-0.12491842961146801 -1.333492551777415 0
-0.19531088201376173 -1.165235070178507 0
-0.11396487659381563 -1.0169604998755526 0
-0.22711736892693501 -0.88992552182652396 0
-0.11845331805017587 -0.72069302201854535 0
-0.20739099047019754 -0.55455554346669034 0
-0.10550087553679044 -0.38644865819451252 0
-0.19736124887727366 -0.21878420354912947 0
-0.099429935623401258 -0.048143548431330535 0
-0.19246831389354235 0.12043663192685652 0
-0.096305895709434486 0.29164933055122599 0
-0.18946837129989327 0.46219349980575375 0
-0.093646175437730308 0.632792208494797 0
-0.18750683698080658 0.80307016294956868 0
-0.093180419620707694 0.97837378048707846 0
-0.18910737309012304 1.1435649848320233 0
-0.099982572689058719 1.3266515631625531 0
-0.32585079229692676 1.6531691556466916 0
-0.25725985857269978 1.9385028597941227 0
-0.58126105676834439 2.18968912022916 0
0.72890636030000433 -2.9101023143834968 0
0.13870214135764744 -2.3883760262207527 0
0.0063019320178563437 -1.6943844456388202 0
0.066747659465658471 -1.3392247008584173 0
-0.0043774832355384184 -1.1757340807926229 0
0.091920900400353861 -1.0209382459652763 0
-0.01412700401732131 -0.86652712359602013 0
0.086764461817082472 -0.71218318669596081 0
[...]
POINT_DATA 4210
SCALARS betaCells double 1
LOOKUP_TABLE default
0.00012776125268101142
0.00012998347497068991
0.00012534263429894209
0.00012626759646676783
0.0
0.025540743370666502
0.025842283815024146
0.025861330303062736
0.025858233397616167
0.02584223616462175
0.025855624922247397
0.025851771901728524
0.025850646950035864
0.02584153044934873
0.0258495593219188
0.02585256847336202
0.025842855088601256
0.025866209979289973
0.025870703791693286
0.02585302514322555
0.025856105375797085
0.0258559352522722
0.025852325374991037
0.025854457891628952
0.02585170888027386
0.0258481637081521
0.025849878874840106
0.02585163269747372
0.02585462882462924
0.025848220590531497
0.02585373246584726
0.025859724651856715
0.025857314936875687
0.025857394610446983
0.02584648720358565
0.02585121806558078
0.02585663096908501
0.025846256003693995
0.025855992077456775
0.025848481388607493
0.025849987005143765
0.0258488732989393
0.02585571649374494
0.025849262181093065
0.025846101381233964
0.025850178856399397
0.02585687497939737
0.025853318518186487
0.025862619282118963
0.02584532005974222
0.025854387396086864
0.025843695393845033
0.025852632313383275
0.025854081991114598
0.025841928565494384
0.02584003225029493
0.0001270437395441443
0.00012827056208361624
0.00012475570739502441
0.0001271924109674502
0.0001730503874222586
0.00018279697872353867
0.00012740166585258034
0.0001707378409987292
0.00027939049314138853
0.00018066071691477236
0.00025747677021674517
0.00024831105697726045
0.00021949679215118716
0.0003570295189804216
0.00022427308959298325
0.00036571869369915087
0.00024350756638386826
0.00018205036857291005
0.00012683458583540797
0.0002241708732943709
0.0002959486254046885
0.00027930249745833336
0.000364626335605529
0.00036880459206433183
0.0003705613265398821
0.0002940221348467448
0.0003398243134919954
0.00034131948275938626
0.00035525203371923695
0.000247374799136199
0.00019187787583295848
0.00012564823469309153
0.0001295107017964854
0.00017780332829921844
0.00025198635420072837
0.00035811621068706817
0.00036390540175831865
0.06744613576521596
0.06704971169712758
0.06771958907819725
0.06706359008845093
0.0677043314416363
0.06705905817978514
0.0673521671971362
0.00033880634297828323
0.0003481602832311224
0.00027125489175620134
0.0001754050249303712
0.00018216319822588406
0.0001921094534003157
0.0002655620466694293
0.0003601718568214966
0.00035243083284557586
0.06749854500991113
0.0674997780962595
0.06790764717855685
0.0679055358245326
0.06790923354971919
0.06790715056253542
0.06790939192740285
0.06790200557434199
0.06790650579133538
0.06735197016451057
0.06701505427149844
0.0003643059906887059
0.0002459031685734007
0.00016925291819982235
0.000244324353325506
0.0003370792470525261
0.0670432817570287
0.06746172970194537
0.06790583957166874
0.0679051076238524
0.06790996922933126
0.06791199657043079
0.06790896778734928
0.06791074380651313
0.06790926138869531
0.06790960940506484
0.06791032554246224
0.06789393888275892
0.06769639206641975
0.0003559911486292603
0.00035191818234215386
0.000217333782322459
0.00012514738702029947
0.00012676114253860608
0.00017470938978652098
0.00024396894067417864
0.0003457088050391649
0.0003325496963080534
0.06771763747955778
0.06790668017152689
0.0679093901634266
0.06790805282759786
0.06790820387242516
0.06791337001107611
0.06791412559246633
0.067911743097512
0.06791176459612115
0.06791406507299531
0.06790929179828241
0.06790747908275946
0.06790498938679884
0.06707790035224918
0.0003672191891528335
0.0002892399422584691
0.0002398171975632258
0.00022687993147378155
0.00028721281495057037
0.0003680775483984079
0.0671058941258383
0.06790332049954584
0.0679086508353472
0.06790587078467725
0.06791356114657145
0.06791251622036171
0.06791013001155818
0.06790997616191184
0.06790949195569694
0.06791769466640082
0.06791131238962313
0.06790668846870658
0.06790743544783452
0.06790829105688743
0.06769696694905436
0.06707527342240194
0.00034261140252081756
0.00017966925519904907
0.00027093949846785634
0.0003559514051123885
0.06739126402536766
0.06759215013429211
0.06791222872951767
0.06791091981446146
0.0679102191622271
0.0679112639270519
0.06791215770997133
0.06791130727390322
0.06791339079479752
0.06791113213064066
0.06791372420369352
0.06791136359337718
0.06791193253860885
0.06791011707826712
0.06790967620218036
0.0679034713256592
0.06735300896692206
0.00036368770529720965
0.00026809910478823207
0.00024400582924905445
0.0003622993465726542
0.06721029248087888
0.06790229487399169
0.06790755758946773
0.06790710462321593
0.0679103788405019
0.06791056450814625
0.06791376745945434
0.06790976197338011
0.06791261413495311
0.0678953912951447
0.06791160973075296
0.06790955182901126
0.06791122517778692
0.06790885769330256
0.0679139692258962
0.06790404619111015
0.06737791812662092
0.00033846810177065774
0.00025317076360542064
0.0001944225722449206
0.00013039665581973626
0.00018378814412510494
0.00034912778530368424
0.0671826220684492
0.06790470896343331
0.06791070522129247
0.06790819727360585
0.06790983616646781
0.06790984882696775
0.06790970952556497
0.06791100033063532
0.06791209242569488
0.06791380970917113
0.06791293103696511
0.06791012085446682
0.06790985944439777
0.06790946481018237
0.06790581626748726
0.06790964253284525
0.06737341432484677
0.0003550200958107059
0.00028557430398465887
0.00017334856655717258
0.0002527655473871168
0.0003548838505986787
0.06679404238140366
0.06789958525648182
0.0679178228863833
0.06790833931897809
0.0679072434418927
0.06791007958404925
0.06791538426275061
0.06791297530648563
0.06791096100538668
0.06791567913556953
0.06791064479961093
0.06791040435245715
0.06791159266134769
0.06790970631153256
0.06790863479626708
0.06789987901868814
0.06735568652153724
0.00036987643609302095
0.00034897863744827554
0.0001808037580215811
0.0001732318674217464
0.0002815006787243735
0.0003680437432656526
0.06772530280692468
0.06790742444411475
0.067908792069457
0.06793539516437826
0.06791072718648161
0.0679109150796515
0.0679153820555525
0.06791418876130256
0.06791276356249991
0.06790740526055672
0.06791111348181322
0.06791086658736756
0.06790958898523905
0.0679083270057643
0.06790194810474488
0.06708237005748104
0.00036529405939380124
0.00029627315275429457
0.00025960322916067076
0.0002160875009684463
0.00019691250700387816
0.0002509604812408734
0.0003698291574465131
0.0003126008535688288
0.06730994116546422
0.06789825493789933
0.0679172402941704
0.06790586391151064
0.06791472450494106
0.06791332805255475
0.06791700749958797
0.06791219119085455
0.06791000790189565
0.06791002030309536
0.06791034970768924
0.06791229037644157
0.06791000285670677
0.06790322129246006
0.06769068253624191
0.00036047684709920923
0.00036035662136839607
0.0002278079873375926
0.0002223077911660801
0.00036240525019281227
0.06697119598220524
0.06738005119145027
0.06790595383385538
0.06790753871984437
0.06791116693559777
0.06793987153959515
0.06791289122725647
0.06791263472505152
0.06790785933825202
0.06790891611046963
0.06790802327211326
0.06790782545205924
0.06790929048361773
0.067694492331654
0.0670842146161712
0.0003620775426502931
0.00027432101096605777
0.0001753021283082224
0.00025817807264853147
0.00036057838583357675
0.0003697028609892951
0.06747465539200617
0.06750857445926786
0.06791721364653723
0.06790757342413549
0.06791059332761457
0.06790751243893225
0.06790583060654189
0.0679053945347388
0.06790804277874396
0.06790369309202192
0.06790543365793804
0.06702323829220197
0.00037141011039418514
0.0002749463351880717
0.00021986093027568447
0.00012902879348266022
0.00012637843488615052
0.0001787096987091091
0.00028818071791302045
0.00027097069970687023
0.00036086934666779684
0.000374922074280276
0.06750577507467057
0.0674432677404979
0.06790056891865516
0.0677170202330062
0.06791200294567971
0.06770538185598962
0.0679028433617243
0.06735202037549186
0.0673562624440182
0.000348412596051244
0.00035590669876142087
0.00028998404866176425
0.00012763178859846698
0.00021657279778364175
0.00021653487484943085
0.00028839145717141795
0.0003357369754969706
0.0003668137337765465
0.00037678555178412103
0.06705747441352687
0.0003543866766405998
0.06707267600466937
0.0003708090760570678
0.067062226619132
0.00036251680970661535
0.0003701384717466051
0.0002539517467305593
0.00022046412094995277
0.00016990358096920105
0.00024804651005168354
0.0002838904498060664
0.00028140878039122254
0.00036058561554961385
0.00028063254781441607
0.00037459324813874295
0.0003574065353023695
0.00027093807898108125
0.0002883037651986183
0.00012723629928944736
0.00016950522406038892
0.00022016292701745034
0.0003258454211622522
0.000279860758695183
0.0001722269107051969
0.00022498198637820824
0.0001746421447076527
0.0002287073935838284
0.00023880339388689868
0.0002200523923670812
0.00013129206014024598
0.00017858264661794646
0.00018129879410717703
0.00017522353979495102
0.000128988605601363
0.00017372997886653567
0.00012957496419627358
0.00012753345467680764
0.00012773118726510792
0.00012889069189420837
0.00012922565227381402
0.0001300585876303316
0.00012496709822175072
0.0
0.022111511818422178
0.022469068371828098
0.02244031215001882
0.02244252265032316
0.02245216700359568
0.02244287138906081
0.02247016218536714
0.02244794390375294
0.022439399293889384
0.022438725366496326
0.022444022053788554
0.02244748864240164
0.022448095747706256
0.022435645292759383
0.022451252271643997
0.022451360078396314
0.02243968263349668
0.02243776691983041
0.022471752846909714
0.022439416749452788
0.022455403157502583
0.022442178490614584
0.02244480543916567
0.022440750509036444
0.02243784485616724
0.022442091072119807
0.022439378700557955
0.022442921454833453
0.022450854983858973
0.022447747981388214
0.022441326954120645
0.022434741296313454
0.022445621041910325
0.022443219105795793
0.02244605009680548
0.02244142178799144
0.022447789023928005
0.02243787598409239
0.022437251591097315
0.022439315625355026
0.022452644033593833
0.02243767662363785
0.022431276565706124
0.022444469716932397
0.022454731370655984
0.022436471828263915
0.022437152293984543
0.02243595035755155
0.0224396405825136
0.022444970642828257
0.02244676400294652
0.00012534766483320421
0.0001279972878369549
0.00012757920261957515
0.00012864715652908604
0.0001736282650789322
0.00018206008939725647
0.00012878883579641064
0.00017388089873441128
0.00027224878638479864
0.0001843087281620093
0.00025002163026619883
0.00025189669546673177
0.0002232328942559666
0.00036019519808846333
0.00022541332125006072
0.0003464297848468237
0.00024169717911021887
0.00018205772100985524
0.00012758717599450483
0.000228630112254047
0.0002898642751801686
0.00028497333937502504
0.00037562021654645634
0.00036127479817235874
0.00037132093150251045
0.0002935255575774158
0.00034138798663766574
0.00034280077142178006
0.00035686863193382573
0.0002477278870758049
0.0001957755607333902
0.00012869017363698908
0.00012670164500880104
0.000177885456624872
0.0002467451001351746
0.0003555483708210871
0.00036501319072529154
0.05888028059648838
0.05853738837023616
0.05913733939279673
0.05854918459035036
0.059122829698590354
0.05854969198674208
0.058810367830716484
0.0003419990639329417
0.00034835916630602306
0.00026665453877462806
0.00017443719833236076
0.0001804886198696373
0.00019066770635986426
0.0002714129773749127
0.00036393132691697755
0.0003476905009949881
0.05893632052558491
0.058938056100876456
0.05932117354893147
0.05931214240124046
0.05931051246343057
0.05930644792747911
0.05931155696641218
0.05929950802353859
0.05930622256389287
0.05880407747147259
0.05851108785354483
0.00036257782761657043
0.000251274106649756
0.0001707454694761246
0.00025093048398847865
0.00034852152100796834
0.05852895285980096
0.05888936149317249
0.05932377375354242
0.05930848002188471
0.059318779815637906
0.05931674147799107
0.059320003428041994
0.05932585596223963
0.059323123316855686
0.059339361876338856
0.05932735483120548
0.05930408300119926
0.05911315137553953
0.00034919332616147936
0.00035727264354905536
0.0002204051934201443
0.00012855395442870203
0.00012827042735221307
0.00017636007087552217
0.00024284658108549487
0.0003486696994451566
0.00033393374059312027
0.05913108015648276
0.059301764399079915
0.05931784188482163
0.05931766891704682
0.05932408572949638
0.0593293824091774
0.05938366629080266
0.059373937079457526
0.059324972606652496
0.059328896059831604
0.0593210273880774
0.059320092060450455
0.05930826552048247
0.05856496934395044
0.0003693331710683456
0.00029349400722229464
0.0002449465865714439
0.00022746790014464808
0.0002902241539190993
0.00038627089876507937
0.05858462768733377
0.05931617854960643
0.05931589757104289
0.05932384077966482
0.05932580932057409
0.05936620791822475
0.05932579455459021
0.0593309740135379
0.05933732155979552
0.05933609857496379
0.059339019206628256
0.05933322046010184
0.05931728163852211
0.05931520339569423
0.05911766412588017
0.058559557611543134
0.00034452427863037514
0.00018126314158878792
0.0002680051387121674
0.0003521380815364078
0.058839337759201756
0.05902194231947619
0.05931763007764416
0.05931966211981902
0.059320027212517334
0.05932322354767295
0.059336900255671496
0.05933229619018848
0.059334904884053324
0.05934178037391729
0.059333978629122854
0.059330669036912115
0.05932153652586816
0.0593188030655311
0.059315406475679046
0.05930241378985768
0.05881117400386934
0.00036525427877220483
0.00027196659353995276
0.00024723685492365196
0.00034777672331816854
0.05868637158166545
0.059306286316007886
0.05931528926889064
0.05931702834030616
0.059332684358204255
0.059326600176306414
0.0593327313824909
0.059333653882521306
0.05933527837918967
0.05933349431917001
0.05933339370073806
0.05932989170461039
0.059328773100210064
0.05933310142442296
0.05931344736160361
0.05931763498805073
0.058824909304751156
0.0003484074273930477
0.00024615790595735275
0.00019614918750007228
0.000130846831002644
0.00017975053352898185
0.0003531765158600468
0.05865237209893289
0.05930630601376733
0.05931417424278237
0.05931757544306729
0.05932851626169936
0.059330618371604534
0.05933122318418322
0.059323707331290325
0.059338882733236745
0.059339028723062286
0.05933448964376732
0.05932496251935269
0.0593310980704493
0.05932494282214508
0.05931415682429397
0.059312410031468074
0.05882492479754596
0.00035249702505833183
0.000287818644884686
0.00017660784918926853
0.00025447535365024135
0.0003515632885357208
0.05832057585361114
0.05930180387599493
0.0593196066088216
0.059322282370670124
0.05932664268591819
0.05933269583904801
0.05933301397990451
0.059329946230265086
0.059331558654398674
0.05933200219594249
0.059333109653809335
0.05933706028589077
0.05932241305508454
0.05932144497789401
0.059315852183582776
0.05930615514213192
0.058805613005383076
0.00037194705499503676
0.00035007766228581816
0.00017586640450362656
0.00017323891291969132
0.00027630196862755003
0.00036026147307818834
0.05914343188721505
0.059307471541133236
0.05931927510647877
0.05932108997240137
0.059331650007671266
0.05933334558890166
0.05933257653893231
0.05933482363459094
0.059334667238045286
0.059327646171078954
0.0593336769245741
0.05936154607969124
0.0593190254012108
0.05931882146349164
0.059301768674292425
0.058561288330517894
0.0003579688081224218
0.00029460142876638657
0.00025615577393109845
0.0002176733552905501
0.0001931915145394222
0.00024954536717329524
0.0003584465024462835
0.0003126169624828925
0.05877367896341363
0.05930385845662149
0.059321552299559294
0.05932333286274779
0.059323400759409416
0.059324386757324016
0.05933146602110785
0.05932453679410249
0.059324020600968363
0.05933054288721949
0.059329283612157606
0.05931589112790774
0.059336352475403864
0.059311672859646794
0.059108737038207564
0.0003561242885074784
0.0003588002129557494
0.0002256516780899738
0.00022500455362948102
0.00036148668816448585
0.05847514147241067
0.05883410952609652
0.05931462320984405
0.05931705189898151
0.05931951464525614
0.05931945997607968
0.05932541812507659
0.05932989387965951
0.05932517446486179
0.05932438850173392
0.05932617540318805
0.05932199528154329
0.05931607118236341
0.059119817697605895
0.05857046041171119
0.0003619110034168095
0.0002736262963519068
0.00017192598075891223
0.00025889603471503927
0.0003658443942598349
0.0003623742521906807
0.05892448571060975
0.058949950646185655
0.059310912776470354
0.05931351549030816
0.05931779616299983
0.05931297419583792
0.05933016880120623
0.059317065195240895
0.05931893589654689
0.05930825176283646
0.05931387575309632
0.05851719545415639
0.00036716250327720103
0.0002785663999788959
0.00021845451993598568
0.0001277340125234166
0.00012945707824607689
0.00017821528140715072
0.00029373285811381866
0.00027139144515981966
0.0003573385267337458
0.0003704497998960097
0.058946931037606655
0.05889229913306564
0.05930343971032699
0.05913424486742895
0.05931624751000579
0.059121922721959264
0.059301060196196215
0.058811234062123366
0.05880844847183868
0.00034633314367091793
0.000353033209497935
0.0002892229694785601
0.00012932411843615503
0.00021936226676133832
0.0002197300571794258
0.0002860750638687222
0.0003301315833529328
0.0003683538103060287
0.00036282547448560017
0.05854571887631356
0.0003560009583497751
0.05856357962645543
0.0003715205357240678
0.05854771993751497
0.00035724483522844917
0.000381684543843718
0.00025342969391284196
0.00021910363419559448
0.00017395340151032105
0.00024491936726450377
0.00028587531314216915
0.00027999192266453527
0.0003741794220141481
0.00027899267633441907
0.0003690564127504909
0.00035289556641776235
0.0002733786952714277
0.0002912745507840257
0.0001298941692701792
0.0001718792246624435
0.00022019798589140624
0.0003279549389727098
0.0002788673681206787
0.00017064200137260254
0.00021916784076486768
0.00017566947563040644
0.00022946112856520463
0.00023693123531082623
0.00021995849668794026
0.0001272331225352714
0.0001789054657570913
0.00018148205903940852
0.00017082095317159628
0.00012562100083531703
0.00016996535271179863
0.00012762380319584614
0.00012778572873063098
0.00012705180676743903
0.00012799789300077606
0.00012513817811304851
0.0001274078530549723
0.00013109557876530656
0.0
0.019260840477124
0.019599182339883524
0.019593091633227262
0.01960573689748699
0.019605221132066347
0.019603461399209716
0.019606234386059778
0.019599214745392772
0.019599868190423815
0.01960167153231829
0.019599606967248176
0.019606350980813758
0.019604007455479678
0.019605014907720035
0.019606233979736515
0.019600967482841906
0.01959989635892595
0.01960215271657194
0.019605837318420034
0.01959659849701403
0.019603822366198446
0.0195974805873633
0.019602525054101826
0.019605375397587898
0.019598501815195738
0.019597659782431966
0.019594019888145124
0.019605478041331427
0.01959961785073542
0.01960177843264561
0.01960327957810346
0.019603896290226217
0.01960405726720914
0.019607521032059767
0.019598282299770422
0.01960611830958956
0.019609142478087885
0.019608879452365856
0.019602703225067
0.019609088426555465
0.01960939868633334
0.01960940217083914
0.019599987106839772
0.019596024728665083
0.01959934184717359
0.019598149026793663
0.019602590287338722
0.019602088652960675
0.01959967403885835
0.019602407056664252
0.0195985002164743
0.00012823303515710168
0.00012681433841940472
0.00012915546927266404
0.0001273966877757678
0.0001729286421937209
0.00017962754165406168
0.0001280030102132337
0.00017040518795836176
0.0002737038787930609
0.00018411649899593454
0.00024989354015081275
0.0002507336442175013
0.00022280665050395719
0.000346811642665683
0.00022101824267961318
0.0003438838547060556
0.00024186366822697965
0.00017861363371461078
0.00012724890296769638
0.00022794617590181002
0.0002904364777515117
0.0002762792821652298
0.00035900497259528264
0.0003549375500460812
0.0003609424362481661
0.0002914427653444889
0.0003427050426083791
0.00033850961127253397
0.00035149548896818534
0.0002503263307093573
0.00019550620615930796
0.00012640399188311964
0.00012795026871112328
0.00018080983064571054
0.00025125720028650533
0.0003504003798848115
0.00035562954629384067
0.05168700451780396
0.05138568692389827
0.05190610877377497
0.051386505526387544
0.05190605048170272
0.051383082710893244
0.05162185213697182
0.0003301600174155178
0.0003423668156261479