# vtk DataFile Version 2.0
HASEonGPU wedge output
ASCII
DATASET UNSTRUCTURED_GRID
POINTS 4210 float
3 0 0
1.8369701987210297e-16 3 0
-3 3.6739403974420594e-16 0
-5.5109105961630896e-16 -3 0
3 -7.3478807948841188e-16 0
1.5 0 0
1.4881720519717168 0.18799985034645639 0
1.4528747416929466 0.37303483074728216 0
1.3946647288323772 0.55218682902701688 0
1.3144600200657954 0.72263051115257304 0
1.2135254915624212 0.88167787843870971 0
1.0934529411321172 1.0268206588930329 0
0.9561359846230344 1.155769864163684 0
0.80374019246849482 1.2664918882530225 0
0.63866893734760899 1.3572405786990294 0
0.46352549156242118 1.4265847744427302 0
0.28107197187858712 1.4734308760930328 0
0.09418577929397029 1.4970400926424072 0
-0.094185779293970096 1.4970400926424072 0
-0.28107197187858723 1.4734308760930328 0
-0.46352549156242101 1.4265847744427305 0
-0.6386689373476091 1.3572405786990291 0
-0.80374019246849526 1.2664918882530225 0
-0.95613598462303462 1.155769864163684 0
-1.093452941132117 1.0268206588930333 0
-1.213525491562421 0.88167787843870982 0
-1.3144600200657952 0.72263051115257337 0
-1.394664728832377 0.55218682902701721 0
-1.4528747416929466 0.37303483074728222 0
-1.4881720519717168 0.1879998503464568 0
-1.5 1.8369701987210297e-16 0
-1.4881720519717168 -0.18799985034645644 0
-1.4528747416929466 -0.3730348307472825 0
-1.3946647288323768 -0.55218682902701743 0
-1.3144600200657957 -0.72263051115257249 0
-1.2135254915624212 -0.88167787843870959 0
-1.0934529411321172 -1.0268206588930331 0
-0.95613598462303429 -1.155769864163684 0
-0.80374019246849449 -1.2664918882530229 0
-0.63866893734760821 -1.3572405786990296 0
-0.46352549156242134 -1.4265847744427302 0
-0.28107197187858696 -1.473430876093033 0
-0.094185779293969818 -1.4970400926424072 0
0.094185779293969249 -1.4970400926424072 0
0.2810719718785864 -1.473430876093033 0
0.46352549156242084 -1.4265847744427305 0
0.63866893734760777 -1.3572405786990298 0
0.80374019246849393 -1.2664918882530234 0
0.95613598462303395 -1.1557698641636844 0
1.0934529411321168 -1.0268206588930333 0
1.213525491562421 -0.88167787843871004 0
1.3144600200657954 -0.72263051115257304 0
1.3946647288323768 -0.55218682902701799 0
1.4528747416929464 -0.37303483074728305 0
1.4881720519717168 -0.18799985034645697 0
1.5 -3.6739403974420594e-16 0
-2.9092010630146201 0.73249515884859218 0
-2.5948422592105751 -1.5055874762582662 0
-2.638638710324535 1.4274402933464378 0
-2.8978884492196491 -0.77604290239438267 0
-2.4227068937481744 -0.29854480912972997 0
-2.2388459313433096 0.80558197238431417 0
-2.1185483491509167 -2.1240887177939527 0
-2.2762777337060913 -0.88614019046409476 0
-1.8284026793996355 -0.30461628664767487 0
-2.3539448847492319 0.28920205505325541 0
-1.925117162062326 0.23371179250294496 0
-1.786888953758706 0.82090200043143891 0
-2.029363796594148 -0.52189541073442902 0
-1.629488009228552 -0.35615711274498935 0
-2.0803231070301726 -0.083492539902757262 0
-1.6755721404685429 0.20772020998593044 0
-1.9165499560764339 0.52102211743306048 0
-2.0300899814367166 1.266754822127965 0
-2.1964213531716528 2.0434610958106756 0
-1.8561330767803648 -0.91743606522273857 0
-1.589270957140853 -0.86153152545695189 0
-1.7343328997797542 -0.60722692470395634 0
-1.5664914951235849 -0.5228335341948539 0
-1.6477868617856892 -0.15715135467004851 0
-1.6437460384134761 0.051158601521915585 0
-1.8041893772262778 -0.023743408280853934 0
-1.6547987547448935 0.37371238924561423 0
-1.6180315114053807 0.5510125353778732 0
-1.5268798570482995 0.69238319934821035 0
-1.6388239287711379 1.0850038388965961 0
-1.6875760156370767 1.5197012524492868 0
-1.5593336036955092 2.5629043564563472 0
-1.4996988441497003 -2.5982500727471542 0
-1.9802297060357401 -1.3698089453659321 0
-1.5762166081711686 -1.1573249426138803 0
-1.4007627594884051 -0.9085974167883949 0
-1.4989064337745857 -0.70379764388621613 0
-1.2625610835544718 -0.40520734113723156 0
-1.325228904412973 -0.23859163392566166 0
-1.2943948053394074 -0.073335637986973831 0
-1.3427827258590763 0.089656682569852653 0
-1.2741279578802678 0.24872482112065408 0
-1.2821538783158424 0.40953240146002873 0
-1.2027516339180548 0.57198522631513882 0
-1.4812954882130449 0.84895039853631105 0
-1.3733470370259659 0.98381510339478051 0
-1.4063508735593937 1.2529923318366569 0
-1.5224835441189251 1.9183802856671823 0
-1.3734112884475305 -1.963044106645158 0
-1.6217056230882707 -1.606012273936521 0
-1.3394498385626938 -1.328073048933422 0
-1.163148119633501 -1.1842337395038438 0
-1.3070589534128838 -1.0649283111320864 0
-1.1113388727093745 -0.71495559522356988 0
-1.1950442737690117 -0.56412598609081921 0
-1.0750534249115704 -0.39661900603232197 0
-1.153617374305147 -0.2288795158674283 0
-1.0803890641793377 -0.068198157584990579 0
-1.1609975453446943 0.086397503654689151 0
-1.0640688638417983 0.24408334498195666 0
-1.1116968993602518 0.40207362957839665 0
-1.0126556824674025 0.57215597613873848 0
-1.1166879670667695 0.72548496557727571 0
-1.0215992045429356 0.87877978378487465 0
-1.2449316405281541 1.0936968153748481 0
-1.2528829909072468 1.4890660584210109 0
-1.0178460593377705 2.2349390410799095 0
-1.1799297904464485 -1.5674061482718298 0
-1.053995649329464 -1.3194350766749008 0
-0.90549945501362272 -0.99679158350665542 0
-1.0121778523560141 -0.85565639728473197 0
-0.90058892009910052 -0.70847393739939535 0
-0.99455595253628404 -0.55670121090994473 0
-0.88085370431514531 -0.3937277336806414 0
-0.96679865129551756 -0.22917106497450077 0
-0.87473932892886563 -0.067133388022849017 0
-0.96287522754762223 0.089737035928369666 0
-0.86096791778617987 0.25359720820182052 0
-0.9291275978649064 0.41075915724199275 0
-0.82710198310864169 0.5901914883258691 0
-0.91926261194328718 0.74398581909229744 0
-0.87753040470528454 0.9586157336022012 0
-1.1390787781582592 1.2385909081969002 0
-0.99471085676146187 1.3503173090428844 0
-1.1194912599855567 1.7930890994062907 0
-0.80032557569043294 2.8912763624767202 0
-0.76650813498443493 -2.9004250157097853 0
-0.92596498484480139 -2.2420169147785218 0
-0.93065761143326786 -1.7641322268359176 0
-0.76167743586714198 -1.5103902682172938 0
-0.91978973580081902 -1.4439707153547374 0
-0.7471457695070477 -1.0596134169643181 0
-0.79988562703292954 -0.86114847093426927 0
-0.69545438153746431 -0.71156615669761192 0
-0.79144204845223087 -0.55273830651967704 0
-0.68372981412882372 -0.39127236548686906 0
-0.77389003567853221 -0.22851799349297833 0
-0.6758485354502406 -0.062509188282699774 0
-0.76578475197800677 0.097233351211423291 0
-0.66591199087864228 0.26899409487517151 0
-0.74487864822602201 0.4295023019591197 0
-0.6541142583383317 0.62066143154172349 0
-0.75580089750440516 0.79138852320325104 0
-0.67091592346472706 0.95464566450371424 0
-0.77487765708040479 1.0995834017989343 0
-0.79869857593483573 1.4387056306916721 0
-0.93665607595392431 1.5546038975791305 0
-0.77864996168239464 1.8161318328826686 0
-0.61353808585111624 -1.9912892840373866 0
-0.62323154969557781 -1.7089059084720191 0
-0.57476832037177294 -1.5368146313824718 0
-0.63793544677181879 -1.1830000433905992 0
-0.52751653788231179 -1.0426931925797678 0
-0.62017295488032353 -0.89424936878366901 0
-0.50669515487228767 -0.72846919149549239 0
-0.59154985920645597 -0.55404564522811806 0
-0.48878995257535085 -0.38914272132141131 0
-0.58006441956412302 -0.22480175810960359 0
-0.48164302349733218 -0.055593658233160488 0
-0.57293926956204289 0.10779851958094987 0
-0.47652327682058099 0.28339409608037769 0
-0.56402551364572673 0.45082301866678548 0
-0.46762066634198834 0.6261494430069231 0
-0.56497407774447306 0.7934328578233576 0
-0.48961916673243916 0.97691456553315903 0
-0.60618811689263163 1.1497232480528154 0
-0.4742094490475352 1.2590003451647966 0
-0.66463891755205384 1.5629920717612207 0
-0.36131365857486558 -2.3511329639786838 0
-0.34793084410212505 -1.8626017024234176 0
-0.39289751616072954 -1.6245634669036431 0
-0.31463216144960332 -1.2915179593386732 0
-0.46642659870548159 -1.2272171454012473 0
-0.33491084033783763 -1.0670527789485813 0
-0.41631791924388989 -0.89039663954563619 0
-0.31181964526899975 -0.7222331744974414 0
-0.40114756376878036 -0.55847270264344362 0
-0.29780899185629278 -0.38891562830600757 0
-0.38777029034256993 -0.22078898707456487 0
-0.29014568668542778 -0.050365931330651592 0
-0.3829147870845242 0.11678225684600209 0
-0.28603439902696814 0.28874089935748026 0
-0.37652314225038691 0.45723474206909159 0
-0.28285935985123906 0.634056233724409 0
-0.3812739593352989 0.80596000288030079 0
-0.28432579640457945 0.96717187850060327 0
-0.38401137154317538 1.1193412798190607 0
-0.28929041088106155 1.2996653185743416 0
-0.48649810464939913 1.5786338372237843 0
-0.50956987991026059 1.802700551049921 0
-0.10156301702722029 -1.9776698354740183 0
-0.18850645867119584 -1.6711101166352897 0
-0.12491842961146801 -1.333492551777415 0
-0.19531088201376173 -1.165235070178507 0
-0.11396487659381563 -1.0169604998755526 0
-0.22711736892693501 -0.88992552182652396 0
-0.11845331805017587 -0.72069302201854535 0
-0.20739099047019754 -0.55455554346669034 0
-0.10550087553679044 -0.38644865819451252 0
-0.19736124887727366 -0.21878420354912947 0
-0.099429935623401258 -0.048143548431330535 0
-0.19246831389354235 0.12043663192685652 0
-0.096305895709434486 0.29164933055122599 0
-0.18946837129989327 0.46219349980575375 0
-0.093646175437730308 0.632792208494797 0
-0.18750683698080658 0.80307016294956868 0
-0.093180419620707694 0.97837378048707846 0
-0.18910737309012304 1.1435649848320233 0
-0.099982572689058719 1.3266515631625531 0
-0.32585079229692676 1.6531691556466916 0
-0.25725985857269978 1.9385028597941227 0
-0.58126105676834439 2.18968912022916 0
0.72890636030000433 -2.9101023143834968 0
0.13870214135764744 -2.3883760262207527 0
0.0063019320178563437 -1.6943844456388202 0
0.066747659465658471 -1.3392247008584173 0
-0.0043774832355384184 -1.1757340807926229 0
0.091920900400353861 -1.0209382459652763 0
-0.01412700401732131 -0.86652712359602013 0
0.086764461817082472 -0.71218318669596081 0
[...]
POINT_DATA 4210
SCALARS betaCells float 1
LOOKUP_TABLE default
2.6514432564791492e-05
2.6787105483408008e-05
2.6021735531697032e-05
2.6065007377344367e-05
0
0.013275950532219364
0.013358458156796142
0.013362140106264611
0.01336163116132524
0.013357811713323599
0.013360395625782871
0.013360739268203983
0.013359524874009866
0.013357254607281328
0.013359805082733871
0.013360896901127694
0.013356703096078209
0.013362258729093163
0.013362637125605384
0.013360149618607639
0.013358013236041664
0.013360459405724476
0.013360717127331952
0.013358307918980808
0.013361062785496217
0.01335937504411425
0.013359547693928425
0.013365909999031551
0.013359816935922249
0.013359818483973027
0.013360533481719216
0.013361477623102106
0.013361690614827434
0.013361545908540445
0.013358124304921469
0.013361513327467028
0.013360363563666194
0.013357936548066433
0.013361852764751748
0.013359671597737984
0.013359409774047683
0.013359345102069462
0.0133620006026526
0.013359302531157038
0.013358286399850448
0.013359865097314943
0.013361525304550774
0.013362811244527302
0.013366886532324679
0.013359119979646655
0.01336046609234523
0.013356610909118173
0.013358928842634277
0.013357336042849475
0.013356582719422302
0.013357460765612995
2.6247596379856728e-05
2.6338741880939918e-05
2.5613984989530877e-05
2.628081748146147e-05
3.5987574924858683e-05
3.7711369909900378e-05
2.6446201594553053e-05
3.5009139423693852e-05
5.7298820177470298e-05
3.7233613358307091e-05
5.2790142117393741e-05
5.1549472883552924e-05
4.4418855307354483e-05
7.4027741179569164e-05
4.6567664173701649e-05
7.6754260538541158e-05
5.0104304018448667e-05
3.778326107351292e-05
2.6220276079027708e-05
4.6014265401901787e-05
6.0665188377919359e-05
5.8018006319583541e-05
7.4280583251581567e-05
7.554813253894823e-05
7.7686190896579077e-05
6.0537512615081886e-05
6.9648940962680205e-05
6.9982360190781859e-05
7.3322300642434966e-05
5.1407807693772383e-05
3.9499845182018003e-05
2.5953697585235718e-05
2.6885020058030999e-05
3.681421665352197e-05
5.209195482226837e-05
7.318295096807934e-05
7.4267214266446422e-05
0.035579354873103979
0.035364952971857176
0.035731331585701173
0.03537125192362961
0.035719300933065086
0.03536771253105734
0.035527744802182515
6.945384878169223e-05
7.2964976084527699e-05
5.6285052583216563e-05
3.6315930382498257e-05
3.7685816156034245e-05
3.9468702200638194e-05
5.4955242821637036e-05
7.4930228450397314e-05
7.4420017864476644e-05
0.035608169629155917
0.03560722532706543
0.035840786366475239
0.035836761889437373
0.035841479936731487
0.035841598521724125
0.035842808072897483
0.035833262945922033
0.035836830402387561
0.035526534188790475
0.035344759729546454
7.5570847561522535e-05
5.0625120382808997e-05
3.4544241437691434e-05
5.0704174863163758e-05
6.9736558667989716e-05
0.035360332168256917
0.035594719763881857
0.035839658777833482
0.035837145770900219
0.035844659645256599
0.035845639116924954
0.035845628262257886
0.035843954785440647
0.035846055955044046
0.035841790064501673
0.035843478810343568
0.035833511892426145
0.035714666019873512
7.3051615148187504e-05
7.3430532608176346e-05
4.4692828198445844e-05
2.5789794273768528e-05
2.6092718393785632e-05
3.6070400015012656e-05
5.0397582783721982e-05
7.1716554296708524e-05
6.8949106019114447e-05
0.035726935610043718
0.035858825203980149
0.035846200843808365
0.035842587447698263
0.035846436004013639
0.03585601283468634
0.035862696971678376
0.035850130326527875
0.035857606206947563
0.03585034590086672
0.035843920492415082
0.035840545087612329
0.035834349857192332
0.035378355312615996
7.5381749401904046e-05
5.9732790255989922e-05
4.9573414187861168e-05
4.7090574418139341e-05
5.9104444520810198e-05
7.5978694804961134e-05
0.035393761122293525
0.035832703699261503
0.035840112526609735
0.035844141566000444
0.035855384064325903
0.035850736563399932
0.035849729925842282
0.035854530223387471
0.035850132492822151
0.035864395224551066
0.035850622858135908
0.035857866019647244
0.035844109836897155
0.035841718888850092
0.035716285330584296
0.035375425900061971
7.0843845994937975e-05
3.6898805123706763e-05
5.5934404210454018e-05
7.3550549166471912e-05
0.035547566948161705
0.035658102559874692
0.035841568783699589
0.035845435690768569
0.03584882608610053
0.035851945477423208
0.035853708807351212
0.035854362208633736
0.035856244541577598
0.03585318391471376
0.035859036616933758
0.035851079910891002
0.035850739213696456
0.035846341854848487
0.035843824101498188
0.035835532086147218
0.035529505504837668
7.4882364813009207e-05
5.6232845884656658e-05
5.0375797504936619e-05
7.4612210215489963e-05
0.03544974980824301
0.035835521944344598
0.03584377769718991
0.035845777130476583
0.035848491655510295
0.03585328018146617
0.035856404229333658
0.035866550183566007
0.035856836460520222
0.035855910579385461
0.035856305095296935
0.035851815782854388
0.035854721786158207
0.035844919288936905
0.035845323034657629
0.035837749208264554
0.03554431561009215
7.0071618913805609e-05
5.2184155665732556e-05
4.0692406337944868e-05
2.6982657102155965e-05
3.7917390061924956e-05
7.2126937758034616e-05
0.035435186634390888
0.035833608827793573
0.035844895038865621
0.035846743048026
0.035854691818189524
0.035852277767489525
0.035851524621408053
0.035852531006761446
0.035853291821916794
0.03585688783951179
0.035858087628069218
0.035852492023242803
0.035851623637056178
0.035846501473014908
0.035844698480970064
0.035840026586567583
0.035538265083609362
7.4036340745291189e-05
5.9129858809090563e-05
3.5809484519512899e-05
5.1961265313343899e-05
7.3499875174673788e-05
0.035222582450886664
0.035830188697501181
0.035848632059258673
0.035843113399099541
0.035852473132221757
0.035853901016271811
0.035855610772376555
0.03585376376834376
0.035852324394275353
0.035857608908767664
0.035851492318403191
0.03585189223526028
0.035857549024763416
0.035851360632144287
0.035841083742504984
0.035832891447465869
0.035527637913330815
7.7337687252532032e-05
7.2334160997704577e-05
3.7190194399040459e-05
3.5848770857149081e-05
5.8497382108647416e-05
7.5822141150113739e-05
0.035733595437828669
0.03583740006844164
0.035844235929925042
0.035876592726203416
0.035851615886544445
0.035850988821086657
0.035854930680041558
0.035857831014738467
0.03585610871805632
0.035849885223326446
0.035851778566871773
0.035848191685005644
0.035846945710281804
0.035841683520412719
0.035835455672234603
0.035381826922064437
7.6909405994667971e-05
6.0950910351424348e-05
5.3750014693056713e-05
4.4333064920714364e-05
4.0786528885388777e-05
5.1946136998592931e-05
7.3665357195393469e-05
6.4192054945996237e-05
0.0355039233803041
0.035835302126253979
0.035848884200579897
0.035846553494482021
0.035850974466338559
0.035849270467989081
0.035858244052013537
0.035850419594013389
0.035851183751468979
0.035849102225048696
0.035849246353956178
0.035846422399850225
0.035843567558167144
0.035835888353380543
0.035713995626603226
7.4489982583515431e-05
7.4859534789942618e-05
4.7059587788321296e-05
4.6239335701419397e-05
7.4670453937740209e-05
0.035318408702013381
0.035542700207481362
0.0358359529883365
0.035839731582764975
0.035848910138148643
0.035872402057878484
0.035852724404930481
0.035847877378591242
0.035848860474410486
0.035846482130572593
0.035847503827592234
0.035845331885511013
0.035840448909486386
0.035714315498493673
0.035382748755155409
7.4595885044817083e-05
5.711772886754034e-05
3.6182312428795671e-05
5.3131035301270157e-05
7.4979477657998415e-05
7.7082136649515154e-05
0.035593634884214964
0.035612155375085622
0.035847086539386556
0.035838726902724057
0.035844376404337741
0.035839219271223091
0.035842459568006649
0.035838153862716396
0.03584403496965162
0.03583550871981285
0.035837353445635788
0.035348748509512917
7.8235004140224742e-05
5.6104428624844266e-05
4.5014391763914359e-05
2.6676516277256664e-05
2.575836452834301e-05
3.7367234145178516e-05
5.9080871764774623e-05
5.573565116076182e-05
7.2765343261299158e-05
7.7924418337263832e-05
0.035610036480643661
0.03557604593035095
0.035832853570407289
0.035728587548279372
0.035840152930764313
0.035720160428789463
0.035835347982503429
0.035528130129145977
0.035529285470950737
7.1894002072635154e-05
7.5620485232180456e-05
5.9799502369140158e-05
2.608629251727722e-05
4.4217227163425013e-05
4.5119810975940407e-05
5.9608248101951787e-05
6.9455509679353713e-05
7.5365720460679648e-05
8.0477170244132562e-05
0.03536681785344075
7.3340458811106091e-05
0.035376936225786713
7.578201130721905e-05
0.035368829927506687
7.3134126306822838e-05
7.6733955474315212e-05
5.1698693234834824e-05
4.6082243897063695e-05
3.5083398212539342e-05
5.2229581746397383e-05
5.8239141647419511e-05
5.7932431433853555e-05
7.4301638447881536e-05
5.8322141195801824e-05
7.8705100104328296e-05
7.4321000883999588e-05
5.6385986115001548e-05
5.919563350744948e-05
2.6060850007799964e-05
3.473481037024962e-05
4.5619858436540275e-05
6.6660614533762123e-05
5.8218689987884723e-05
3.559372048836852e-05
4.5214491052834277e-05
3.5796353163647165e-05
4.6825124847653706e-05
4.9732126549327757e-05
4.4939895088864808e-05
2.7074040252951683e-05
3.6344409069740412e-05
3.6778578122570974e-05
3.5937724403112804e-05
2.70017565958961e-05
3.5890374748450306e-05
2.672805026940948e-05
2.6145736308044556e-05
2.6391088519452617e-05
2.6953054089861317e-05
2.6719487235348231e-05
2.661087860300411e-05
2.529352912578813e-05
0
0.011464446672253617
0.011557370747378417
0.011548320768386466
0.011548680857024284
0.011560024086958989
0.011548934859364349
0.011584928159462072
0.011550162215165045
0.011549825354348803
0.011547766929287533
0.011553891412275516
0.011553485547683796
0.011549613448102684
0.011547540098666638
0.011553039250652434
0.011552187948732778
0.011549502623163822
0.011548508119976313
0.01156321195171613
0.011550062172328731
0.011554387769604513
0.011549371730071707
0.011551505016931987
0.011548515546785541
0.011548885915609885
0.011549668412992091
0.011548251585747557
0.011548069836688105
0.011554284767115279
0.011550515195271827
0.011551230433991446
0.011548730604222313
0.011551285299927399
0.011550511828726056
0.011550837252136901
0.011551602677773694
0.011548792115346511
0.011548413713963795
0.011548229075121158
0.011548743557245415
0.0115514898146305
0.011550440838020334
0.01154732859037038
0.011555582533156436
0.01154985973437991
0.011549546697790625
0.011548284412331265
0.011547387590259396
0.01155088084062386
0.011550110084345722
0.011551970871715053
2.5427728481620369e-05
2.6601200809343737e-05
2.6235019002429691e-05
2.6824497514128557e-05
3.6076450466471096e-05
3.7538791466711931e-05
2.664598622450959e-05
3.5866264277489397e-05
5.609779324569194e-05
3.7637331048252009e-05
5.1771261737898759e-05
5.1982431534334394e-05
4.6038738554245547e-05
7.2729600378176185e-05
4.7000435100598566e-05
7.2064182431030196e-05
4.9243352260797906e-05
3.7407964671824053e-05
2.6036208333102783e-05
4.754718597571179e-05
5.9647421328735477e-05
5.7017666025585337e-05
7.6338842605667029e-05
7.4961559399480137e-05
7.6064293256631512e-05
5.9646932134706774e-05
6.9673830341428436e-05
6.9311348442121931e-05
7.4996727753284174e-05
5.1084531264779701e-05
4.0027245171082663e-05
2.693282151240354e-05
2.6600065966214786e-05
3.6661959074272664e-05
5.0591063166489214e-05
7.2805113590218725e-05
7.5130088533907264e-05
0.030827664809508409
0.030644999576864389
0.03096541351736469
0.030649584305316321
0.03095714086594107
0.03065099897049503
0.030786785334190048
7.0473810895394358e-05
7.140774286617232e-05
5.4837907314167242e-05
3.559027886901782e-05
3.7041977887621152e-05
3.9247739810312389e-05
5.6574866678181279e-05
7.6467919021777907e-05
7.2398828349998505e-05
0.030857758467052569
0.030858523817186172
0.031067705030345817
0.031062931126784172
0.031062579632559831
0.031059553468429799
0.031063568229298188
0.031054762920096329
0.031058467555968729
0.030787301131326335
0.030629883859354428
7.4693558841742465e-05
5.1834314221804147e-05
3.5588883171773045e-05
5.1859548820864805e-05
7.107138789276699e-05
0.030638228472449451
0.030830625055821206
0.031071040080852673
0.031060737924549067
0.031069256402126356
0.031066308315781659
0.031069951132122086
0.031078123341569702
0.031071732767227564
0.031081555510244031
0.031073523617674931
0.031058078697944139
0.030953631496324067
7.1899193931380947e-05
7.1675135756211523e-05
4.5242604762954292e-05
2.6529036055560592e-05
2.6278115612899708e-05
3.6753086208630273e-05
4.9725536956520862e-05
7.1726318295617643e-05
6.9601363705454927e-05
0.030961755146310527
0.031055488896307673
0.031067517454195386
0.031067434118190122
0.031074064379161423
0.031077752290266485
0.031116296932136057
0.031112387669808325
0.031075273751690474
0.031078635716082256
0.031070131569061292
0.031068815984853934
0.031060659244325294
0.030659434880203642
7.6308022105641714e-05
6.0873924151113774e-05
5.059800692473837e-05
4.7698475004605368e-05
5.9611927744323607e-05
7.7934849755673775e-05
0.030669116660356953
0.031067489930039022
0.031068041425796299
0.03107158088974778
0.031074462078059834
0.031104333946066771
0.031074036831455602
0.031078274457235676
0.03108267260638066
0.031081884467684028
0.031084587480673578
0.031078350632154708
0.031066881779920116
0.031068739321219334
0.030956573682164323
0.030655711195580679
7.0907759219581941e-05
3.7045213565791742e-05
5.5585837029764955e-05
7.2395667581153783e-05
0.03080632720846941
0.030901891265856039
0.031069910659079658
0.031070375005878142
0.031071605022829171
0.031071939990609976
0.03107676666032843
0.031082243213768228
0.03108088853877617
0.031085684456078223
0.031082085850802646
0.031076815015217578
0.031073002326361419
0.0310698748282357
0.031066267522967751
0.031056017036077195
0.030791556161977172
7.4609449468376421e-05
5.5727603686498377e-05
5.1113748577700529e-05
7.2823383252284689e-05
0.030723731548859583
0.03105994515163054
0.031065551060409296
0.031068608227754556
0.031078319424173807
0.031075665007877482
0.031079967299740059
0.031080326733299565
0.031081119918546868
0.03107800488598441
0.031078774028944441
0.031076737646843676
0.031077766945383046
0.031079073784571247
0.03106483755849717
0.031065842162787356
0.030796558797403159
7.0296809004271173e-05
5.0474742225900903e-05
4.0023317518162072e-05
2.6965678045665076e-05
3.6920078653721725e-05
7.1046421738351378e-05
0.030704914584320182
0.031059804429319115
0.031064536817094437
0.031070762957767083
0.031075771045745354
0.031078931976828372
0.031077645215086498
0.031080138479842763
0.031083798726888913
0.031085282800433031
0.031081419162042177
0.031075298647387041
0.031077714140054537
0.031074945888463615
0.031064737949042361
0.031063188764959046
0.030797468734702908
7.2046457801551626e-05
5.9774555882845384e-05
3.6304536154085962e-05
5.2982930768194576e-05
7.3654774147195631e-05
0.030528309491608001
0.031057184443681062
0.031069012010690469
0.031071498372099972
0.031076044569649932
0.031081438957356412
0.031079873177058608
0.031078972788382529
0.031078254164006065
0.03108001969982449
0.031080750415855826
0.031082797570872008
0.031071977105537767
0.031070830697562342
0.031065090430335993
0.031058749870572618
0.030787677100991652
7.6899177408452658e-05
7.2162018164702033e-05
3.6490278417596518e-05
3.5636982974146228e-05
5.8204897363205669e-05
7.3727052800207316e-05
0.030969119277816187
0.031059102729761028
0.03106785210638479
0.03107056196857557
0.031079057737598174
0.031077078910522395
0.031077374739953242
0.03108104216269026
0.031082236058823945
0.031075450967644767
0.031080722163375589
0.031111980212737957
0.031069611881683931
0.031067267798876065
0.031056637042357668
0.030655969179048483
7.3600192149828031e-05
6.0396384238135242e-05
5.2666707581620236e-05
4.5047831583683449e-05
3.9439404439882815e-05
5.1714189144765571e-05
7.4471355185132187e-05
6.3956792074030831e-05
0.030770107422384202
0.031057735788415052
0.031071844663483936
0.031069500530806485
0.031073137118316572
0.031073709772073646
0.031079163076742931
0.031074750302047777
0.031074043882741972
0.031080549169582361
0.031076564960511366
0.031069126409611604
0.031080156010549836
0.03106190393308712
0.030951445467862208
7.2858511065569665e-05
7.6313748496061233e-05
4.6348497609740831e-05
4.6198946167498267e-05
7.5133076212367106e-05
0.030609196957941488
0.03080399331023656
0.03106308045659557
0.031065706628960216
0.031068857313251819
0.031069453404849165
0.031074156248444521
0.031076035548865497
0.031073662969173133
0.031072635529964324
0.031074399343758975
0.03106826268251623
0.031063723106058996
0.03095824198610185
0.030660163740384983
7.4858512579956962e-05
5.5322754611099203e-05
3.5465070893364604e-05
5.3482447418035334e-05
7.433973549907547e-05
7.8000394272475845e-05
0.030853449169694517
0.030866678564800368
0.031061471701986997
0.03106149243818172
0.031068264747130842
0.031064092462783841
0.031078385125586402
0.031065993696622874
0.031067214163821098
0.031059470639947965
0.031062379472152242
0.030632893195501987
7.582169744622575e-05
5.802333578553517e-05
4.452396512571289e-05
2.6902234154334781e-05
2.6645442614066166e-05
3.6676842209824361e-05
6.033682209165539e-05
5.5911112335890793e-05
7.3368950656494002e-05
7.7562762676004708e-05
0.030863625443835651
0.03083556533831746
0.031058873146563335
0.030963440172771719
0.031065067774152473
0.030957165703472508
0.031056611772735158
0.03079253748533017
0.030790757887488609
7.2153272605821595e-05
7.4031262178783834e-05
5.9061520994142287e-05
2.6463562262837723e-05
4.6113229519076132e-05
4.4337156145679278e-05
5.9343181665434165e-05
6.8280338135174798e-05
7.6280101294845092e-05
7.5651035869771927e-05
0.030648152564114791
7.2728439359026468e-05
0.030656872274307051
7.5734763683248045e-05
0.030649306225084418
7.3967328226241086e-05
7.9513665215835713e-05
5.1937323548963908e-05
4.5161804373338746e-05
3.5379512611620199e-05
5.0651638905827935e-05
5.8692859024794724e-05
5.7611566598422017e-05
7.985769425740923e-05
5.8051489829994983e-05
7.6092813330701768e-05
7.3099266347398102e-05
5.6688844602022208e-05
6.0161070182978687e-05
2.6847200261234152e-05
3.4857871061702865e-05
4.5921639336121773e-05
6.7056782804801872e-05
5.6547905989929846e-05
3.5310434932454634e-05
4.5418811090569075e-05
3.6090666844432993e-05
4.8121546540148244e-05
4.8879724802634737e-05
4.5374984671380067e-05
2.6476955213839239e-05
3.7419575184896974e-05
3.7579353659522458e-05
3.52771771135185e-05
2.654413375510915e-05
3.5203537682566143e-05
2.5498473810111722e-05
2.6352042993075288e-05
2.592235945253927e-05
2.6228322891406026e-05
2.5957072052892135e-05
2.6037748881667041e-05
2.6310309731275221e-05
0
0.009964894946030943
0.01004896026334863
0.010047762907587595
0.010049498970124224
0.010050212812260373
0.010049544807859127
0.010050908754066038
0.01004985359095749
0.010049277054163419
0.010050104187758514
0.010051014832984876
0.010050310960228539
0.010051072815564959
0.010051810821900039
0.010050709744930348
0.010052649094045039
0.010050582677122624
0.010047681236532071
0.010051617157025482
0.010048262736572073
0.010053437317830188
0.010050099340570702
0.010050259066277403
0.010050749352372506
0.010047362852599433
0.01004977055487017
0.010049628906434228
0.010052468316997991
0.010048366131154417
0.010047605529320111
0.010050554755993091
0.010048741596359193
0.01005006250526287
0.010051126597736012
0.010049458234367996
0.010052360817584281
0.010051643626811402
0.010051596959214423
0.010050969637872496
0.010052076530234346
0.010051473301834132
0.010049268585008804
0.010050270589596601
0.010048059102592797
0.010047629328117539
0.010048204610182954
0.010049843512075919
0.010049917170919381
0.010050838832744474
0.010049135269909089
0.010050337729396702
2.6654895610361074e-05
2.6189141748417911e-05
2.6568930965337935e-05
2.5833476289350833e-05
3.6123139016164119e-05
3.7279973652328006e-05
2.5956707905412729e-05
3.5696858959968466e-05
5.6546600194177111e-05
3.8175780974575353e-05
5.0958441187651153e-05
5.1781702146352018e-05
4.6248574125785048e-05
7.1346439460359153e-05
4.6291663282535241e-05
7.2158453156593368e-05
4.9716298713059208e-05
3.5943072395734655e-05
2.6737464555014511e-05
4.6557549157968145e-05
5.9179045348570883e-05
5.7194688024805919e-05
7.4019360183488785e-05
7.3040001160640491e-05