# vtk DataFile Version 2.0
HASEonGPU wedge output
ASCII
DATASET UNSTRUCTURED_GRID
POINTS 4210 float
3 0 0
1.8369701987210297e-16 3 0
-3 3.6739403974420594e-16 0
-5.5109105961630896e-16 -3 0
3 -7.3478807948841188e-16 0
1.5 0 0
1.4881720519717168 0.18799985034645639 0
1.4528747416929466 0.37303483074728216 0
1.3946647288323772 0.55218682902701688 0
1.3144600200657954 0.72263051115257304 0
1.2135254915624212 0.88167787843870971 0
1.0934529411321172 1.0268206588930329 0
0.9561359846230344 1.155769864163684 0
0.80374019246849482 1.2664918882530225 0
0.63866893734760899 1.3572405786990294 0
0.46352549156242118 1.4265847744427302 0
0.28107197187858712 1.4734308760930328 0
0.09418577929397029 1.4970400926424072 0
-0.094185779293970096 1.4970400926424072 0
-0.28107197187858723 1.4734308760930328 0
-0.46352549156242101 1.4265847744427305 0
-0.6386689373476091 1.3572405786990291 0
-0.80374019246849526 1.2664918882530225 0
-0.95613598462303462 1.155769864163684 0
-1.093452941132117 1.0268206588930333 0
-1.213525491562421 0.88167787843870982 0
-1.3144600200657952 0.72263051115257337 0
-1.394664728832377 0.55218682902701721 0
-1.4528747416929466 0.37303483074728222 0
-1.4881720519717168 0.1879998503464568 0
-1.5 1.8369701987210297e-16 0
-1.4881720519717168 -0.18799985034645644 0
-1.4528747416929466 -0.3730348307472825 0
-1.3946647288323768 -0.55218682902701743 0
-1.3144600200657957 -0.72263051115257249 0
-1.2135254915624212 -0.88167787843870959 0
-1.0934529411321172 -1.0268206588930331 0
-0.95613598462303429 -1.155769864163684 0
-0.80374019246849449 -1.2664918882530229 0
-0.63866893734760821 -1.3572405786990296 0
-0.46352549156242134 -1.4265847744427302 0
-0.28107197187858696 -1.473430876093033 0
-0.094185779293969818 -1.4970400926424072 0
0.094185779293969249 -1.4970400926424072 0
0.2810719718785864 -1.473430876093033 0
0.46352549156242084 -1.4265847744427305 0
0.63866893734760777 -1.3572405786990298 0
0.80374019246849393 -1.2664918882530234 0
0.95613598462303395 -1.1557698641636844 0
1.0934529411321168 -1.0268206588930333 0
1.213525491562421 -0.88167787843871004 0
1.3144600200657954 -0.72263051115257304 0
1.3946647288323768 -0.55218682902701799 0
1.4528747416929464 -0.37303483074728305 0
1.4881720519717168 -0.18799985034645697 0
1.5 -3.6739403974420594e-16 0
-2.9092010630146201 0.73249515884859218 0
-2.5948422592105751 -1.5055874762582662 0
-2.638638710324535 1.4274402933464378 0
-2.8978884492196491 -0.77604290239438267 0
-2.4227068937481744 -0.29854480912972997 0
-2.2388459313433096 0.80558197238431417 0
-2.1185483491509167 -2.1240887177939527 0
-2.2762777337060913 -0.88614019046409476 0
-1.8284026793996355 -0.30461628664767487 0
-2.3539448847492319 0.28920205505325541 0
-1.925117162062326 0.23371179250294496 0
-1.786888953758706 0.82090200043143891 0
-2.029363796594148 -0.52189541073442902 0
-1.629488009228552 -0.35615711274498935 0
-2.0803231070301726 -0.083492539902757262 0
-1.6755721404685429 0.20772020998593044 0
-1.9165499560764339 0.52102211743306048 0
-2.0300899814367166 1.266754822127965 0
-2.1964213531716528 2.0434610958106756 0
-1.8561330767803648 -0.91743606522273857 0
-1.589270957140853 -0.86153152545695189 0
-1.7343328997797542 -0.60722692470395634 0
-1.5664914951235849 -0.5228335341948539 0
-1.6477868617856892 -0.15715135467004851 0
-1.6437460384134761 0.051158601521915585 0
-1.8041893772262778 -0.023743408280853934 0
-1.6547987547448935 0.37371238924561423 0
-1.6180315114053807 0.5510125353778732 0
-1.5268798570482995 0.69238319934821035 0
-1.6388239287711379 1.0850038388965961 0
-1.6875760156370767 1.5197012524492868 0
-1.5593336036955092 2.5629043564563472 0
-1.4996988441497003 -2.5982500727471542 0
-1.9802297060357401 -1.3698089453659321 0
-1.5762166081711686 -1.1573249426138803 0
-1.4007627594884051 -0.9085974167883949 0
-1.4989064337745857 -0.70379764388621613 0
-1.2625610835544718 -0.40520734113723156 0
-1.325228904412973 -0.23859163392566166 0
-1.2943948053394074 -0.073335637986973831 0
-1.3427827258590763 0.089656682569852653 0
-1.2741279578802678 0.24872482112065408 0
-1.2821538783158424 0.40953240146002873 0
-1.2027516339180548 0.57198522631513882 0
-1.4812954882130449 0.84895039853631105 0
-1.3733470370259659 0.98381510339478051 0
-1.4063508735593937 1.2529923318366569 0
-1.5224835441189251 1.9183802856671823 0
-1.3734112884475305 -1.963044106645158 0
-1.6217056230882707 -1.606012273936521 0
-1.3394498385626938 -1.328073048933422 0
-1.163148119633501 -1.1842337395038438 0
-1.3070589534128838 -1.0649283111320864 0
-1.1113388727093745 -0.71495559522356988 0
-1.1950442737690117 -0.56412598609081921 0
-1.0750534249115704 -0.39661900603232197 0
-1.153617374305147 -0.2288795158674283 0
-1.0803890641793377 -0.068198157584990579 0
-1.1609975453446943 0.086397503654689151 0
-1.0640688638417983 0.24408334498195666 0
-1.1116968993602518 0.40207362957839665 0
-1.0126556824674025 0.57215597613873848 0
-1.1166879670667695 0.72548496557727571 0
-1.0215992045429356 0.87877978378487465 0
-1.2449316405281541 1.0936968153748481 0
-1.2528829909072468 1.4890660584210109 0
-1.0178460593377705 2.2349390410799095 0
-1.1799297904464485 -1.5674061482718298 0
-1.053995649329464 -1.3194350766749008 0
-0.90549945501362272 -0.99679158350665542 0
-1.0121778523560141 -0.85565639728473197 0
-0.90058892009910052 -0.70847393739939535 0
-0.99455595253628404 -0.55670121090994473 0
-0.88085370431514531 -0.3937277336806414 0
-0.96679865129551756 -0.22917106497450077 0
-0.87473932892886563 -0.067133388022849017 0
-0.96287522754762223 0.089737035928369666 0
-0.86096791778617987 0.25359720820182052 0
-0.9291275978649064 0.41075915724199275 0
-0.82710198310864169 0.5901914883258691 0
-0.91926261194328718 0.74398581909229744 0
-0.87753040470528454 0.9586157336022012 0
-1.1390787781582592 1.2385909081969002 0
-0.99471085676146187 1.3503173090428844 0
-1.1194912599855567 1.7930890994062907 0
-0.80032557569043294 2.8912763624767202 0
-0.76650813498443493 -2.9004250157097853 0
-0.92596498484480139 -2.2420169147785218 0
-0.93065761143326786 -1.7641322268359176 0
-0.76167743586714198 -1.5103902682172938 0
-0.91978973580081902 -1.4439707153547374 0
-0.7471457695070477 -1.0596134169643181 0
-0.79988562703292954 -0.86114847093426927 0
-0.69545438153746431 -0.71156615669761192 0
-0.79144204845223087 -0.55273830651967704 0
-0.68372981412882372 -0.39127236548686906 0
-0.77389003567853221 -0.22851799349297833 0
-0.6758485354502406 -0.062509188282699774 0
-0.76578475197800677 0.097233351211423291 0
-0.66591199087864228 0.26899409487517151 0
-0.74487864822602201 0.4295023019591197 0
-0.6541142583383317 0.62066143154172349 0
-0.75580089750440516 0.79138852320325104 0
-0.67091592346472706 0.95464566450371424 0
-0.77487765708040479 1.0995834017989343 0
-0.79869857593483573 1.4387056306916721 0
-0.93665607595392431 1.5546038975791305 0
-0.77864996168239464 1.8161318328826686 0
-0.61353808585111624 -1.9912892840373866 0
-0.62323154969557781 -1.7089059084720191 0
-0.57476832037177294 -1.5368146313824718 0
-0.63793544677181879 -1.1830000433905992 0
-0.52751653788231179 -1.0426931925797678 0
-0.62017295488032353 -0.89424936878366901 0
-0.50669515487228767 -0.72846919149549239 0
-0.59154985920645597 -0.55404564522811806 0
-0.48878995257535085 -0.38914272132141131 0
-0.58006441956412302 -0.22480175810960359 0
-0.48164302349733218 -0.055593658233160488 0
-0.57293926956204289 0.10779851958094987 0
-0.47652327682058099 0.28339409608037769 0
-0.56402551364572673 0.45082301866678548 0
-0.46762066634198834 0.6261494430069231 0
-0.56497407774447306 0.7934328578233576 0
-0.48961916673243916 0.97691456553315903 0
-0.60618811689263163 1.1497232480528154 0
-0.4742094490475352 1.2590003451647966 0
-0.66463891755205384 1.5629920717612207 0
-0.36131365857486558 -2.3511329639786838 0
-0.34793084410212505 -1.8626017024234176 0
-0.39289751616072954 -1.6245634669036431 0
-0.31463216144960332 -1.2915179593386732 0
-0.46642659870548159 -1.2272171454012473 0
-0.33491084033783763 -1.0670527789485813 0
-0.41631791924388989 -0.89039663954563619 0
-0.31181964526899975 -0.7222331744974414 0
-0.40114756376878036 -0.55847270264344362 0
-0.29780899185629278 -0.38891562830600757 0
-0.38777029034256993 -0.22078898707456487 0
-0.29014568668542778 -0.050365931330651592 0
-0.3829147870845242 0.11678225684600209 0
-0.28603439902696814 0.28874089935748026 0
-0.37652314225038691 0.45723474206909159 0
-0.28285935985123906 0.634056233724409 0
-0.3812739593352989 0.80596000288030079 0
-0.28432579640457945 0.96717187850060327 0
-0.38401137154317538 1.1193412798190607 0
-0.28929041088106155 1.2996653185743416 0
-0.48649810464939913 1.5786338372237843 0
-0.50956987991026059 1.802700551049921 0
-0.10156301702722029 -1.9776698354740183 0
-0.18850645867119584 -1.6711101166352897 0
-0.12491842961146801 -1.333492551777415 0
-0.19531088201376173 -1.165235070178507 0
-0.11396487659381563 -1.0169604998755526 0
-0.22711736892693501 -0.88992552182652396 0
-0.11845331805017587 -0.72069302201854535 0
-0.20739099047019754 -0.55455554346669034 0
-0.10550087553679044 -0.38644865819451252 0
-0.19736124887727366 -0.21878420354912947 0
-0.099429935623401258 -0.048143548431330535 0
-0.19246831389354235 0.12043663192685652 0
-0.096305895709434486 0.29164933055122599 0
-0.18946837129989327 0.46219349980575375 0
-0.093646175437730308 0.632792208494797 0
-0.18750683698080658 0.80307016294956868 0
-0.093180419620707694 0.97837378048707846 0
-0.18910737309012304 1.1435649848320233 0
-0.099982572689058719 1.3266515631625531 0
-0.32585079229692676 1.6531691556466916 0
-0.25725985857269978 1.9385028597941227 0
-0.58126105676834439 2.18968912022916 0
0.72890636030000433 -2.9101023143834968 0
0.13870214135764744 -2.3883760262207527 0
0.0063019320178563437 -1.6943844456388202 0
0.066747659465658471 -1.3392247008584173 0
-0.0043774832355384184 -1.1757340807926229 0
0.091920900400353861 -1.0209382459652763 0
-0.01412700401732131 -0.86652712359602013 0
0.086764461817082472 -0.71218318669596081 0
[...]
POINT_DATA 4210
SCALARS betaCells float 1
LOOKUP_TABLE default
9.0007902392299713e-06
9.1141797867718512e-06
8.7998939095890979e-06
8.8743228118262897e-06
0
0.0089669555641028274
0.008997632737536251
0.0089988091243689873
0.0089981736649307996
0.0089967873565307988
0.008997828239404022
0.0089976862018809924
0.00899741076472255
0.0089964829551651831
0.0089977039914015625
0.0089979705323484614
0.0089963614819680189
0.0089984641226095469
0.00899842423623466
0.0089979483310035687
0.0089978764066570606
0.0089976245030983573
0.0089979388862165
0.0089977057735463866
0.0089977192905634044
0.0089975018282595701
0.0089977002065206972
0.0089996444046187545
0.0089979433909213348
0.0089977149048617276
0.0089979810481639333
0.0089983911127220536
0.0089982923052723436
0.0089982406840252646
0.0089969113404043018
0.0089985621696000648
0.0089980599472563906
0.0089971950468308304
0.0089997742718921914
0.0089977373587255133
0.0089974992914605839
0.0089976668798319726
0.0089986179095173507
0.0089972810396723966
0.008996988225150656
0.0089983750792236635
0.0089983282819581789
0.0089995266263244618
0.0089996956978815254
0.0089973413017096111
0.0089980009129834448
0.0089964429933248775
0.0089973112200337768
0.0089971414373602905
0.0089964142555139515
0.0089971281002992655
8.8959555893842486e-06
8.9496078499734058e-06
8.695450982305935e-06
8.971126745301838e-06
1.2130974161213674e-05
1.275557134500112e-05
9.0399754182921673e-06
1.1914390352536502e-05
1.9444070950286657e-05
1.2638345339372311e-05
1.7881430687931198e-05
1.749809341123605e-05
1.513559121384989e-05
2.4860847698435463e-05
1.5746520107067845e-05
2.5980881848867345e-05
1.6915384696030158e-05
1.2667878797563183e-05
8.9367286582567407e-06
1.5639898879266692e-05
2.0712433070139236e-05
1.9624192253630269e-05
2.5095327170656231e-05
2.534507493838759e-05
2.6117057534419578e-05
2.056939698985234e-05
2.3714937243963785e-05
2.3541401725723505e-05
2.5058338868645922e-05
1.7400485840750713e-05
1.3436402927589077e-05
8.792326798890903e-06
9.0789344482460834e-06
1.2494048477806746e-05
1.7733734320662925e-05
2.4883509454436108e-05
2.5273363056151335e-05
0.024120479793561612
0.023973715735019316
0.024224490900738929
0.023979950200873085
0.024217607121910456
0.023977590557015406
0.024086111997247583
2.3511394969756011e-05
2.4508328083796075e-05
1.908387518877186e-05
1.2239479695692049e-05
1.2728811444088252e-05
1.3436990107595224e-05
1.8750316561511151e-05
2.5406542266018669e-05
2.5723285091727831e-05
0.024141186013087471
0.024140781543655232
0.024296967992328018
0.024295510543606791
0.024298059123062599
0.024297730690123337
0.024297941721798309
0.024293432564317347
0.024295115401702407
0.0240860392579452
0.023961969026119388
2.5625443295380343e-05
1.7277767642492196e-05
1.1775575991496005e-05
1.7081849823935077e-05
2.3527288406015924e-05
0.023971747068194202
0.024128367188009862
0.02429715093941371
0.024295471146309949
0.024298918733832765
0.02429964230068684
0.024299464178421375
0.024299019173148251
0.024300140238687019
0.024297914591081146
0.024298779951736925
0.024293634987155307
0.024213590532033584
2.4659429610494767e-05
2.4562642638202347e-05
1.5065061768379791e-05
8.7433210948015526e-06
8.9007475274536686e-06
1.2178824889500011e-05
1.7049562192675485e-05
2.4343113237389799e-05
2.3286047075457529e-05
0.024222337605026206
0.024304798453229973
0.024299313775284551
0.02429812222506798
0.024300672765815184
0.024303644938662897
0.024307342028549263
0.024301713878980974
0.024305126925695211
0.024302675832531373
0.024298870628129743
0.024297545840763889
0.024294425858107788
0.023984639480636224
2.5739522597702541e-05
2.0301321452245496e-05
1.6806797586337726e-05
1.5922645032597957e-05
2.0045170434048204e-05
2.5820034910957243e-05
0.023995514421621573
0.02429323300182424
0.02429726024647811
0.02429918640155717
0.024304048026441042
0.024301618437220347
0.024301598983064523
0.024303619422740876
0.024302280182562752
0.024308139241986625
0.024301978636124225
0.02430156192696583
0.02429838141644795
0.024297255816771543
0.024214574364867965
0.023982687070683018
2.3974370654932715e-05
1.2443710109329309e-05
1.8893977782547366e-05
2.4869984122410064e-05
0.024100420170433279
0.024175422806451175
0.02429779348786984
0.024299596755575199
0.024302450783988648
0.024303405623486148
0.024303348509938982
0.024304008402950134
0.024304619424352698
0.024303301729219479
0.024305793760272691
0.024301451474816382
0.024302026361726577
0.024298974099990427
0.024298709934126715
0.02429463881963824
0.024087925473873228
2.5543339861618522e-05
1.8769174166440333e-05
1.7048843361581302e-05
2.5229074983995828e-05
0.024033285417110369
0.024294521669898553
0.024299186237206817
0.024299113545176255
0.024301303905747404
0.024302551282468811
0.024304593346709338
0.024309104704169106
0.024304828475839171
0.024304385885608286
0.024303841917661793
0.024302536010091132
0.024303541479822253
0.024299351524261575
0.024299510575869356
0.024295950956012627
0.024097142430616746
2.3613026379017998e-05
1.7688906721349086e-05
1.3767910867042901e-05
9.1316724202974734e-06
1.2829892018736493e-05
2.4301705335663343e-05
0.024022741469599325
0.024293430911277086
0.024300415631649405
0.024299858930594335
0.02430431166138328
0.0243027874734148
0.02430261537032382
0.024302916696908157
0.0243028917418898
0.024304608614409414
0.024305035043517817
0.024302962850828704
0.024302358663405861
0.024300207755601676
0.024298983773483579
0.024297202430518701
0.024093920391734382
2.5371077239787711e-05
2.0004591207268529e-05
1.2134237169776029e-05
1.7642003396291374e-05
2.4827182172966126e-05
0.02387904387315673
0.024291877832847846
0.024300829868108914
0.024298598441703463
0.024303080347520351
0.024303559778609846
0.024304366983409757
0.02430349813246422
0.024302692541437756
0.024305345215451676
0.024302747989757827
0.024303067203500582
0.024305055049630941
0.024302444178408471
0.024297639101378665
0.024293798171359501
0.024086810011509047
2.6017532542578854e-05
2.444891225164727e-05
1.271522149803127e-05
1.2193184550200537e-05
1.9811459868795602e-05
2.5903243244643323e-05
0.024226934201948831
0.024295108466420544
0.024299084977929649
0.024313495886632331
0.024302477511973127
0.024302090589909717
0.024302811806311796
0.024305277170343517
0.024304393458649473
0.024301921681622402
0.024302616179549347
0.024301213375289586
0.024300511282504277
0.02429732018891078
0.024294582230434188
0.023985771302545637
2.6467916568463721e-05
2.0601149940005925e-05
1.8282170138508661e-05
1.502010009495176e-05
1.3783673459890163e-05
1.7647101443332361e-05
2.489867759819874e-05
2.1756127358368944e-05
0.024070952974387182
0.024295779773203831
0.024301209226500177
0.024299932410918886
0.024303298749336018
0.024300862110589395
0.024305629791535405
0.024302076365315374
0.024302448319045378
0.024301333613221877
0.024301271471245132
0.024299834598627088
0.024298194980178045
0.024294569246750216
0.024213522165976969
2.5223117570343366e-05
2.5501182437133189e-05
1.594286276287838e-05
1.555298331555078e-05
2.5221552295443894e-05
0.023944013781217598
0.024096591348905468
0.024295220273102401
0.02429652112695703
0.024301286962982532
0.024311524294000336
0.024300981983293803
0.024300177157731577
0.024301176824536898
0.024300457441463773
0.024300916674538101
0.024300085525091445
0.024297351793620126
0.024214112227131726
0.023986928088725858
2.5400542853246097e-05
1.9335470917788038e-05
1.2342850030061643e-05
1.7884853616220129e-05
2.5156917264946098e-05
2.6085458042589319e-05
0.024131477425211233
0.024144759073585889
0.024300062912835568
0.024296477261696606
0.02430009554159027
0.024296995937611768
0.024297692384368005
0.0242962380876122
0.024298235390686838
0.02429528140522047
0.024295524416388305
0.023965342630111963
2.6513826452795761e-05
1.8966330959040681e-05
1.53115885266689e-05
9.0456477225331161e-06
8.6808643648217389e-06
1.2664963089417118e-05
2.0094210868179181e-05
1.8794220180182578e-05
2.4765146241862791e-05
2.6754849711013765e-05
0.024143220444506397
0.024120079735727405
0.024293353509102562
0.02422330554980499
0.024297277291744301
0.024217471539192129
0.024294296783303134
0.024086924998924078
0.024088266990598278
2.4553220297140844e-05
2.5485033775451071e-05
2.0246982667577622e-05
8.9289394368271951e-06
1.5018550973560027e-05
1.5296173234237929e-05
2.0186891618805517e-05
2.3703463407420015e-05
2.5762050279588979e-05
2.7292262375167503e-05
0.023976847311633825
2.4759287364607514e-05
0.023983636973180223
2.5659438352408103e-05
0.023977898723413216
2.476812333333825e-05
2.6214165961525338e-05
1.7518351525285806e-05
1.5531817374366346e-05
1.1835911765910289e-05
1.7740790172841326e-05
1.9683415859037037e-05
1.9726355113296716e-05
2.550599133638573e-05
1.9865320509634529e-05
2.6306081035875732e-05
2.541448009971937e-05
1.8957367377598844e-05
2.008538136085154e-05
8.8551106374023386e-06
1.178002951357839e-05
1.543434549334598e-05
2.2590233114445877e-05
1.9552599907351245e-05
1.2107523306360206e-05
1.540466019218241e-05
1.201432079743405e-05
1.5937798638203631e-05
1.6794356154680663e-05
1.5289002692154614e-05
9.1947494449742891e-06
1.2261470273446322e-05
1.2553234122470337e-05
1.2251947780636873e-05
9.1916932013109354e-06
1.2159278337465955e-05
9.0387719819659526e-06
8.9548318943747258e-06
8.9668945262754148e-06
9.197371159279589e-06
9.0325658042943818e-06
9.0497466751207309e-06
8.5166671894027358e-06
0
0.0077367327630972569
0.0077700584797799101
0.0077671092460087614
0.0077669749594647224
0.0077756686623667217
0.0077670723603205701
0.0077798130242713922
0.0077676999977343217
0.0077680734236897329
0.0077669900845718995
0.0077691273320786534
0.0077688586676091069
0.0077677975990398454
0.0077669538385539989
0.007767948331300692
0.0077679547162124336
0.007767342345399747
0.0077666968974427139
0.0077718489375558607
0.0077676030390468782
0.0077696753644408909
0.0077672795692776547
0.0077677177787997074
0.0077673736096536394
0.0077677366122258923
0.0077674103892214127
0.0077669295428741385
0.0077668072597283522
0.0077690412566295067
0.0077677412549941264
0.0077681382750555295
0.007767302912821553
0.0077679458934788951
0.0077681040689078617
0.0077675826138144423
0.0077683758993031746
0.0077672389575837199
0.0077670826952700462
0.0077670875119578518
0.0077670195772043902
0.0077684416998571419
0.0077677273561673199
0.0077665697209665981
0.0077698656324525581
0.0077679012904781752
0.007767650271475704
0.0077670210569946458
0.0077666648343379073
0.0077674698431849012
0.0077677300003343719
0.0077682494037664002
8.5720527213717987e-06
9.0314730194961465e-06
8.9176893263655479e-06
9.089884911139259e-06
1.2321209175749817e-05
1.2704973712724544e-05
9.0556822815377473e-06
1.2126731442407223e-05
1.9088687318725949e-05
1.275921073029369e-05
1.7488171926785558e-05
1.7642205315138055e-05
1.5524107305124702e-05
2.4724851316819244e-05
1.599757146287337e-05
2.4522422019294368e-05
1.6717820835034897e-05
1.2660583065794925e-05
8.8144514507593717e-06
1.6184222014043241e-05
2.0228708204277652e-05
1.9325888656999968e-05
2.5855756777956401e-05
2.5464562435099218e-05
2.5768973673004041e-05
2.0060687493577903e-05
2.365030544416753e-05
2.348439599692868e-05
2.5329808258227773e-05
1.7240265658935928e-05
1.3544272013862714e-05
9.1757157668108027e-06
9.0595712385248145e-06
1.2451383833178552e-05
1.7083276178668028e-05
2.4515484087722427e-05
2.5536125705064323e-05
0.020847786234367692
0.020721412302668194
0.020938479400752295
0.020726118215900882
0.020933742991418789
0.020726176019870087
0.020818846539514727
2.3783705957090833e-05
2.4210114946809087e-05
1.855417743989807e-05
1.2176418824522967e-05
1.2505406009094832e-05
1.3301293373547473e-05
1.9068157825746254e-05
2.6124510762888092e-05
2.4417597061553288e-05
0.020866836079739631
0.020867237436996557
0.021004469853395453
0.021002845609237826
0.021003042138723331
0.02100164307609656
0.0210034907726721
0.020999461690970212
0.021000958812109932
0.020819162710110303
0.020712015232611406
2.483938937876104e-05
1.7590854929401052e-05
1.2035773463380768e-05
1.7548508508875228e-05
2.4220608265433378e-05
0.020718321634174867
0.020849291808016576
0.021006248028769273
0.021001865382554989
0.021005868207225407
0.021004826688319191
0.021006178403881959
0.021009970572163597
0.021007403554093043
0.02101139137698492
0.021007312016476869
0.021000751554470905
0.020931726881950753
2.4499002663780983e-05
2.4320802012506995e-05
1.5377515837785459e-05
8.9677377393791543e-06
8.9765341320159404e-06
1.2512400477943842e-05
1.6813294527148516e-05
2.4257502877098834e-05
2.3646751672465957e-05
0.020937632435051527
0.020999889615251933
0.021005182644719456
0.021004631868332388
0.021007697835796094
0.021012788984019481
0.021025498005583905
0.021024926812888617
0.021008684464212911
0.02101316332345244
0.02100585489576233
0.021005407621562056
0.021002010659922209
0.020732137783635075
2.6015812193992343e-05
2.0635720061908392e-05
1.7270718251716887e-05
1.6182243209345772e-05
2.0236415042817755e-05
2.6278760608248356e-05
0.020739464175308829
0.021004805969178725
0.021005143409765104
0.021006202282304508
0.021007980984813834
0.021020747420147236
0.021008077482193448
0.021009885966718798
0.021011475421529369
0.021010470915788032
0.021012447958557827
0.021009730485358896
0.021004858526046423
0.021006361769960076
0.02093217882827722
0.020729816297887484
2.4215542525407853e-05
1.2623922679991621e-05
1.8772960548653284e-05
2.4419089645667948e-05
0.020831695169751051
0.020896204547899505
0.02100590694834123
0.021006353278269413
0.021006829806359404
0.021007429107757603
0.021009028700190259
0.021011295903424109
0.021010683185447999
0.021012636565569183
0.0210108989016035
0.021009334478197639
0.02100716252625158
0.021006060790488994
0.021004744572376922
0.021000290652151067
0.020821537503126836
2.5340490572892555e-05
1.8908494939948305e-05
1.7186634397906824e-05
2.4882990926837832e-05
0.020775076122385785
0.021001511663051496
0.021004030102211226
0.021005670170330941
0.021009579553563078
0.021008679506186276
0.02101033472997877
0.021009872569698298
0.021011821759865625
0.021009991070061906
0.021010058207794911
0.021008848517403721
0.021009438907012332
0.021008972009411465
0.021004330071669262
0.021004291540104705
0.020825536249891894
2.3880649618408279e-05
1.717071188533299e-05
1.3623782809633159e-05
9.0886903592422982e-06
1.257984056505973e-05
2.3874485439856822e-05
0.020763264056309946
0.021001067729314142
0.021003773548578124
0.021006667499940023
0.021009173965050101
0.021010284514538832
0.02100976524090379
0.021010635746898751
0.021012323426832052
0.021012863428675956
0.021011120132151853
0.021008297959436352
0.021009816524757346
0.021008909332943429
0.021004195196934555
0.021003087274858698
0.020826285795763174
2.4372517467518799e-05
2.0286973906675766e-05
1.2247021768453256e-05
1.8011285505906793e-05
2.4869570592612064e-05
0.020641823594075032
0.020999889912922749
0.021005975537786437
0.021006657488173687
0.021009201955479808
0.021011007062480498
0.021010183945799139
0.021010622266177646
0.021009458084298195
0.021010716847862237
0.021010425978409832
0.021011255313553849
0.021007174160635789
0.021006584484094912
0.021004370757231782
0.021001493111152608
0.020819595683731248
2.5841979451220767e-05
2.4342484865938928e-05
1.2325285513426603e-05
1.2153734453611495e-05
1.9717375378347144e-05
2.4990529673878298e-05
0.020941788486030219
0.021001663966094181
0.021005297477915387
0.021006557206077858
0.021009800803812498
0.021008681337752473
0.021008894577354754
0.021011959353814488
0.021011516223112932
0.021008364590042163
0.021010966960043176
0.021047637682279192
0.021006316594477655
0.021004272549709636
0.020999444936213925
0.020730270576422787
2.4844776573590472e-05
2.0643426900448492e-05
1.7870485071090344e-05
1.5129551417307984e-05
1.344004877428474e-05
1.7233295420348519e-05
2.4550638966604884e-05
2.1580987796810629e-05
0.020806776718035422
0.02100042093656513
0.021011519241960853
0.021006100311079488
0.021008389059955036
0.021007753516422319
0.021009487980185176
0.021008249358924105
0.021008326988775881
0.021014140547287133
0.021008207331369478
0.021005998270413676
0.021006386732028814
0.021002271611086552
0.020930638818615187
2.4314492452385922e-05
2.5280281603513988e-05
1.5597287541214021e-05
1.5890971234632275e-05
2.6265724727502545e-05
0.020697211591284979
0.020829415286212197
0.021001857230976962
0.021003653807349691
0.021006059913029135
0.021005873840747796
0.021008636390196539
0.021006608364204711
0.021007273641202501
0.021008190724178852
0.021008728146574441
0.02100525939785159
0.021003336723887635
0.020933679372770388
0.020731014548807561
2.5182013354562316e-05
1.9106682326342115e-05
1.2325939730489848e-05
1.8235654497636576e-05
2.490617121043675e-05
2.9434291806889429e-05
0.020861694299697461
0.020870754683298107
0.021002804638437865
0.021002102522922596
0.021006398591025034
0.021004510642649778
0.02100990519094979
0.021003637932275734
0.021003370110847137
0.021000972682468311
0.021000645094525996
0.020713663156977376
2.631571498788831e-05
1.9625579839944657e-05
1.5058787745975735e-05
9.1182343172131949e-06
9.052313467499732e-06
1.2513384226564868e-05
2.0661903282595146e-05
1.9092875923281487e-05
2.5027433977648393e-05
2.6067660107779605e-05
0.020872785685712422
0.020852412811938129
0.021003219783301684
0.020937287133857303
0.021001190793851262
0.020933022709750983
0.021000434914089955
0.02082287629080308
0.020821244803412305
2.3992606349814115e-05
2.5073561934334854e-05
2.025336653383427e-05
8.9661167348780017e-06
1.5668228901131346e-05
1.4965774233090074e-05
2.0082780646106296e-05
2.3512480485475769e-05
2.549157594608356e-05
2.568879412201326e-05
0.020725608122863264
2.5054201955315129e-05
0.020729599202997023
2.5245280182955558e-05
0.020726226359815171
2.559007842089734e-05
2.6468139486878704e-05
1.7748802312677609e-05
1.5490777772616239e-05
1.2065145386494297e-05
1.7288655106705205e-05
1.9729577738089737e-05
1.9601595111660567e-05
2.5570534291889446e-05
1.9415419473618085e-05
2.6054721148072442e-05
2.4638358975005974e-05
1.9430787920876631e-05
2.0074973655818244e-05
8.9252911671053715e-06
1.2034749330990405e-05
1.5620099524836593e-05
2.2907218242771056e-05
1.9277794818422228e-05
1.215021298892539e-05
1.5587687511567447e-05
1.2026400390517863e-05
1.5757914791423715e-05
1.6498084669323351e-05
1.5371085126356382e-05
9.0797526234128333e-06
1.264582118275181e-05
1.2538582890955203e-05
1.227524356181609e-05
9.1275637756052195e-06
1.207834764836565e-05
8.6962820802788732e-06
8.8940260528853705e-06
8.8053756024387807e-06
8.6521628122791915e-06
8.9070821255117283e-06
8.7945462908536138e-06
8.9019340025967641e-06
0
0.0067198229681710245
0.0067495875048573621
0.0067496006007472208
0.0067500463744496744
0.0067505711981314664
0.0067499062361890318
0.0067504742730236846
0.0067504352092409873
0.0067492552895652407
0.0067500825575545261
0.0067508120586213622
0.0067503299436006622
0.0067504164594611362
0.0067507391312018813
0.0067504663593687918
0.0067496372584922555
0.0067510056550984607
0.0067502778376609569
0.0067510566177225052
0.0067498711396818348
0.0067530583067257795
0.0067506691143118334
0.0067500436221336387
0.0067497592947524179
0.0067493977502791113
0.006750317919382666
0.0067503361915371742
0.0067497727936386594
0.0067504613025104777
0.0067493132314896016
0.0067517655629886642
0.0067497312850112404
0.0067511917170357833
0.0067498441986273607
0.0067499337354681253
0.0067498448941692652
0.0067520503232178508
0.0067506946583121806
0.006751113380509299
0.0067501568193398054
0.0067506257847377953
0.0067499493209800827
0.0067510883111491365
0.0067499817965182129
0.0067495191984630696
0.0067492725915432733
0.0067513894031798766
0.0067494035892489233
0.0067500037911652332
0.0067497892776832921
0.0067507322563821089
9.0178119980051339e-06
8.8090254875113763e-06
8.9688256781250667e-06
8.9918105042803976e-06
1.2219308810584054e-05
1.267225074443151e-05
8.7142875876750621e-06
1.2326290261607684e-05
1.9381052885913069e-05
1.2712522246888846e-05
1.7367951060822783e-05
1.7181869113125164e-05
1.5777662454629067e-05
2.4024519219694274e-05
1.6095224263180361e-05
2.3756143226843564e-05
1.7025808459551994e-05