# vtk DataFile Version 2.0
HASEonGPU Tet4 gain medium input
ASCII
DATASET UNSTRUCTURED_GRID
POINTS 3210 double
-2 -2 0
-0.87058413649334643 -0.86437484108710372 0
-1.0898830721527657 -1.2639106255526662 0
-1.6000000000000032 -2 0
-0.70108592761554689 -0.82338392466828192 0
-0.85183475485118476 -0.69849028076723652 0
-1.7468944848753079 -1.7188382599398615 0
-1.2688715608246131 -1.3165767049188102 0
-1 -1 0
-1.2553244705419948 -1.1361665730779107 0
-1 -0.79999999999999982 0
-2 -1.5999999999999996 0
-0.8000000000000016 -1 0
-0.60000000000000142 -1 0
-1.3835417766750031 -1.5954365611020183 0
-1.1441256644326034 -1.4474257349345445 0
-0.87819303150415018 -1.2327214878744641 0
-0.9739638299291562 -1.4073138540337873 0
-1.2000000000000028 -2 0
-0.48887727635732087 -0.83814376019362591 0
-0.55172289650808137 -0.69001781761162961 0
-0.69367695623873371 -0.60300692207255246 0
-0.8432672555500329 -0.50219288189140032 0
-1 -0.59999999999999964 0
-1 -0.39999999999999947 0
-1.7509306477015343 -1.3987547385972887 0
-1.4754388549411905 -1.2704634268952359 0
-1.2113816216891429 -0.91247447155394601 0
-1.4033702785347 -1.0238117561521232 0
-1.1942844932001331 -0.71443960081431235 0
-2 -1.1999999999999993 0
-0.29592030420726412 -0.83567314989563635 0
-0.40000000000000124 -1 0
-0.20000000000000107 -1 0
-0.67446493777396876 -1.2175946282779191 0
-0.48036026488033096 -1.1571085083495618 0
-1.0039999726873665 -1.6559468096511103 0
-0.74965349537920201 -1.4616120405240547 0
-0.80000000000000249 -2 0
-0.38749613507736691 -0.67342616598778993 0
-0.49925762712982619 -0.50454422178120917 0
-0.67812708091732554 -0.40431618725413382 0
-0.8399714482910996 -0.30317741132570358 0
-1 -0.19999999999999929 0
-1.1820734366545813 -0.49728474284067259 0
-1.1494391553051129 -0.31580850435313179 0
-1.6575648811917989 -0.99787276134588032 0
-1.4153104878580289 -0.80042889927932959 0
-1.3478238225197461 -0.59351707588256275 0
-2 -0.79999999999999893 0
-0.19707569817804538 -0.66788434090052717 0
-0.10008958565627553 -0.83433644428695075 0
-8.8817841970012523e-16 -1 0
-0.28366924369189245 -1.1758354213197573 0
-0.088185740066133445 -1.129911617779185 0
-0.44836737547541139 -1.3980577954870179 0
-0.63315721806258851 -1.7143281147952494 0
-0.40000000000000213 -2 0
0.090905981261919136 -1.180314505364231 0
-0.29033076024548338 -0.49851189537463791 0
-0.37373744566700712 -0.36055247757665254 0
-0.51971211525478511 -0.30197808659106778 0
-0.6787340889703346 -0.20477012392576058 0
-0.83873800688242328 -0.10362430758644882 0
-1 8.8817841970012523e-16 0
-1.2076131405176147 -0.1334018339609126 0
-1.3814922681226025 -0.33467224253215899 0
-1.6455204238399896 -0.58747207603025686 0
-1.1888062540144526 0.080070632427435395 0
-2 -0.39999999999999858 0
-0.10438083423137012 -0.49739611888011459 0
-0.0042365696505120773 -0.66796227097803307 0
0.09807853875910183 -0.83489772607756318 0
0.19999999999999929 -1 0
-0.085102081309122654 -1.3699345617225203 0
-0.23216438723077429 -1.68999129342006 0
0.18715910527785851 -1.351581442901763 0
-1.7763568394002505e-15 -2 0
0.33107204419602543 -1.2314872803844781 0
-0.20869861554400151 -0.31180436249396137 0
-0.36507015999666814 -0.19972967844096373 0
-0.52016485612125352 -0.10593608720787603 0
-0.6767912264355993 -0.0078529231134183315 0
-0.83773190208930481 0.09413915195281651 0
-1 0.20000000000000107 0
-1.4185538071426551 -0.03064615911479443 0
-1.7194220908785156 -0.18457530554278206 0
-1.1907895326650475 0.29348627250939291 0
-1.3635515160104825 0.18983972972716007 0
-2 1.7763568394002505e-15 0
-0.012684393716108987 -0.33577130642048458 0
0.086978017581727893 -0.50245493754185355 0
0.19310523951676084 -0.67066941587286344 0
0.29969190617799923 -0.83641836197406993 0
0.39999999999999947 -1 0
0.1741648137050025 -1.6532159992443458 0
0.37120279174631798 -1.4445309821181287 0
0.39999999999999858 -2 0
0.52599473348186465 -1.1606348340347488 0
0.56406005056635333 -1.3656953935600495 0
-0.19768512966185539 -0.10803712480044333 0
-0.076143570687630502 -0.19026749816392702 0
0.059422805918095324 -0.18326095967987707 0
-0.35714259349811595 -0.011306555277001733 0
-0.2026187006369421 0.046603777466718579 0
-0.51045235317451876 0.087113511016506454 0
-0.6753495891076563 0.18665475255350797 0
-0.83742442128330696 0.29215276647146049 0
-1 0.40000000000000124 0
-1.1767369205754155 0.49428642857632621 0
-1.650447274399069 0.1988612138005327 0
-1.4156425053899342 0.39672084432543347 0
-2 0.40000000000000213 0
0.18400636461430553 -0.31712144048469448 0
0.18498345624188584 -0.15901503752959995 0
0.2820648476112686 -0.50835249263599203 0
0.39605469662097975 -0.67393070602966909 0
0.49644096623662443 -0.84435825929281683 0
0.59999999999999964 -1 0
0.58088703887377668 -1.668442878912398 0
0.79999999999999893 -2 0
0.7348415726469455 -1.2059914962292166 0
0.76401411849568002 -1.4395735114881125 0
-0.015343443875436808 -0.0081287147042650824 0
0.13088374949554316 -0.068273322729001967 0
0.23615184864163591 -0.065207609421919985 0
-0.31934131632273244 0.18582213252875709 0
-0.1181222245732725 0.18198216573713097 0
0.044010830486829619 0.17734329131816268 0
-0.51392453756175405 0.27529974661506973 0
-0.67577209888121237 0.37907883648899859 0
-0.36479457614011368 0.36351778339322038 0
-0.83805400031842547 0.48326317032159044 0
-0.68748762337258063 0.54424680231486655 0
-1.3491917414439387 0.62177650063225953 0
-1 0.60000000000000142 0
-1.1508498282798816 0.64678189215115345 0
-1.6623671307504748 0.61005320400817609 0
-1.4400119563206022 0.80394970405086796 0
-2 0.80000000000000249 0
0.35973459519495327 -0.35637919074202867 0
0.33205927037141686 -0.18031899138503815 0
0.49897435670165369 -0.49619148226738191 0
0.69551990195215729 -0.85185342754705495 0
0.59558687298290336 -0.69719073071562665 0
0.79999999999999982 -1 0
0.86276857971810783 -0.87023750001640221 0
0.92602049709911771 -1.1379966256881131 0
1.1999999999999993 -2 0
0.9905299063066223 -1.6560881706457011 0
0.96380162980741646 -1.3380401268304689 0
1.5999999999999996 -2 0
0.18092003828999931 0.077060977186862931 0
0.35241577903309329 0.0039624091742476849 0
-0.19901798854230238 0.3490227344977917 0
-0.017441484848112636 0.3383981204022094 0
0.18087582014188053 0.29553914299515993 0
-0.50205491991688866 0.49530403418569552 0
-0.2949682115802269 0.51018909445576555 0
-0.81960456828239692 0.69792672815875889 0
-0.6020103966827447 0.684200901056086 0
-1.1965746207831209 0.82596659194778699 0
-1 0.8000000000000016 0
-0.86299505359675732 0.87056786876994363 0
-1.3559026657027178 0.96001813675374714 0
-1.20749178623478 1.012884460085121 0
-1.6271401177311251 0.9979225975202638 0
-2 1.2000000000000028 0
-2 1.6000000000000032 0
0.50639294657722067 -0.28390836731178531 0
0.5069897608102335 -0.092481838424626581 0
0.68479780150420244 -0.55165541809978036 0
0.6715716388371531 -0.38537624659914843 0
0.81832299663838215 -0.69933407253495405 0
1 -1 0
1 -0.8000000000000016 0
1.1156665300391413 -1.1760512903655651 0
1.4063905011833888 -1.701734599646155 0
1.2515841323020322 -1.4109932474780615 0
1.7344291904814404 -1.7390556991665058 0
2 -2 0
0.34965128902272147 0.18533421577844975 0
0.51133485227908471 0.09694896828316614 0
0.36201986232072247 0.3506520563979012 0
-0.1055747056524254 0.50620581843823576 0
0.084286973973998314 0.49460672643305176 0
0.2711998835658469 0.49478310220845839 0
-0.40300547872643849 0.67171508184630391 0
-0.20360434788026338 0.67046881283540605 0
-0.69537069970138965 0.85491261569095778 0
-0.50597712426319075 0.8396014181461402 0
-1 1 0
-0.79999999999999982 1 0
-1.1119527529974549 1.1182115378913777 0
-1.3204629730267055 1.1867237938376616 0
-1.6112360983173741 1.4247133439913888 0
-1.7182010495835827 1.7531600672614644 0
-2 2 0
0.66979110390505125 -0.19369056025801068 0
0.671912498364579 0.0016440905906927161 0
0.83519859972040134 -0.48951266193554205 0
0.83506890287692392 -0.29619826184629766 0
1 -0.60000000000000142 0
1.1407983533252661 -0.85991989600381602 0
1.1975156423020372 -1.0020625404277739 0
1.1703902741223489 -0.69555164173114392 0
1.3653692242549873 -1.126279219270939 0
1.655779774704591 -1.398050697021245 0
2 -1.6000000000000032 0
0.51289482834917099 0.28636325292528869 0
0.6742741875904068 0.19675501749053056 0
0.49147956477751192 0.49598660200703082 0
-0.0083700574353257253 0.66724294082717028 0
0.18503238807212627 0.66547123372707684 0
0.37893543621799108 0.6691541169475812 0
-0.30464609540338794 0.83429107087498278 0
-0.10506153848377571 0.83316887056997735 0
-0.59999999999999964 1 0
-0.39999999999999947 1 0
-0.94003553126952677 1.1323552459032675 0
-0.75635268157412794 1.1257389254981804 0
-1.091773474456263 1.2590941896308381 0
-1.1809620203963087 1.4902784153286492 0
-1.3743227074225621 1.7467415522677467 0
-1.5999999999999996 2 0
0.83473444887420745 -0.098339347779871966 0
0.83645612025364668 0.099851846861491941 0
1 -0.40000000000000124 0
1 -0.20000000000000107 0
1.1734167968960914 -0.48134006709316679 0
1.3549977225545526 -0.8462436287676095 0
1.3241715042480973 -0.60608147138797674 0
1.6667936905429823 -1.0004248572517291 0
2 -1.2000000000000028 0
0.6756306733685391 0.39637396509790324 0
0.8378421769452622 0.2990530961962537 0
0.68753638441752596 0.59861689763710568 0
0.54570063104501343 0.68510543265723389 0
0.093690968468483682 0.8332720594633537 0
0.29045046575613748 0.83376878011670152 0
0.48504005446446641 0.83471721236533181 0
-0.19999999999999929 1 0
8.8817841970012523e-16 1 0
-0.57705350877060346 1.1957090401978592 0
-0.334943236457038 1.1771598484933465 0
-0.83271390420261115 1.3817743231492596 0
-1.0014100800324146 1.7218005898525617 0
-1.1999999999999993 2 0
1 -8.8817841970012523e-16 0
1 0.19999999999999929 0
1.1952882238150733 -0.26342414083900062 0
1.1246338345117119 -0.076805654268818913 0
1.401632225593068 -0.36732539015513155 0
1.6246154217437627 -0.63197559845057472 0
2 -0.80000000000000249 0
0.84172024388793754 0.49832781955889494 0
1 0.39999999999999947 0
0.84931222859629807 0.69592295842210772 0
0.69133563117359143 0.81793093830261943 0
[...]
POINT_DATA 3210
SCALARS betaCells double 1
LOOKUP_TABLE default
9.912069862353146e-05
0.09994683487709774
0.0005532522189214393
0.00013464281618816952
0.1086532712347252
0.1067703421980947
0.00015586284051837324
0.00040030403953129407
0.01713283783189307
0.0005299187617684882
0.04351987998823227
0.000134682779145555
0.04351373535684613
0.0440364235360407
0.0002476308500500123
0.00038153216238724505
0.0007580984603077767
0.00047838192237037534
0.00017624235557238643
0.1077479933251615
0.11030215740334429
0.11032823273984316
0.1073639961982561
0.04404152651119676
0.04406820113909878
0.00020441455434447667
0.0003226271861017043
0.0007699616365546238
0.00046046153981496856
0.0009500983301409485
0.00017661678065349607
0.10782477760361903
0.04406415778313711
0.044078609066027535
0.0009352749960081199
0.0011331185396827451
0.0003131478726135021
0.0005057424969105386
0.0002159000879011973
0.110155121771432
0.11001413199780566
0.11018175383804779
0.10753952851391735
0.044080483800354134
0.0010750442340567434
0.0012028644665392164
0.00031363502144779394
0.0005355563536278758
0.0006836941305948964
0.00021655624133783423
0.11000982577984367
0.10787349943113468
0.04408374708583115
0.001119680795421355
0.0012766352823298478
0.0006420026515924996
0.0003471396604403132
0.00024281587116453278
0.0011390263136120866
0.10998759884640064
0.1099054329561607
0.10999492993932504
0.11010759706449694
0.10757594054407285
0.044087791518535924
0.001080281016629472
0.0006883273159941565
0.00039515361773019716
0.0011371467166020645
0.00024374702626488528
0.10992822862134087
0.11005529485133639
0.10780419936284193
0.0440775539774386
0.0007186190432220737
0.0003975142510012872
0.0007484762398366641
0.00025216246942266025
0.0009919404336248743
0.10980583931752884
0.109807266951873
0.10995177432034456
0.11009198088780084
0.10760902373686732
0.04408336112051709
0.0006631090081263589
0.0003836853931667572
0.0011025471400206057
0.0007332285620270031
0.0002535869025332131
0.10980416868599904
0.10992130889556154
0.11009069741864953
0.10777280507266308
0.04406805657143328
0.0004255028335452514
0.000601737962117909
0.0002428900160763212
0.0011050950676511028
0.0006609967496316572
0.10977826035637074
0.10973130581473522
0.10977934314562464
0.10974599377420227
0.10974938478284338
0.10992945913352828
0.11012563688917099
0.1077038437376385
0.04406983593660348
0.0010730386956667574
0.0004283474995549172
0.000632325402289435
0.00024300740560101358
0.10982689212483664
0.10979299671808991
0.10993180628768043
0.11017371384331386
0.10731307636317448
0.04404020387747538
0.0003792964134022545
0.00021445677048808357
0.0008885316511429398
0.0005164743085784276
0.10974420157531249
0.10975760407884393
0.1097633482664666
0.10980219621406245
0.10965748766676328
0.109755776182853
0.10997835626999251
0.11016708101616993
0.10991754341954271
0.10774644127651253
0.11028537876966134
0.0006649473917471181
0.044036292128155255
0.0010716881081943566
0.00037842580145118525
0.0005019427938270069
0.00021484006221077556
0.10991276293700813
0.10982506395425275
0.11008274625727009
0.10673162029021101
0.11026586005198659
0.04351000270660145
0.10019212940383285
0.000861390102726097
0.00017448217452887041
0.0003116228780271113
0.0005323770189712471
0.0001330066106550304
0.1097319070225467
0.10984039784780363
0.10985588594606689
0.10982852881324968
0.10980586713597308
0.11007850137158454
0.10996043724520004
0.10884593567822955
0.11033502369818668
0.0008375840964739414
0.043514859443741456
0.10010035388810612
0.0005179092178007425
0.0006539096229590923
0.0003235615734407357
0.00017467491444952052
0.0001330876910247102
0.10999416037538526
0.10986652931762035
0.11026152130343964
0.11018335849847861
0.1088728880402798
0.017112789964740693
0.04350683448781622
0.0005954011306402151
0.00021099239957962163
0.0003487125511535023
0.00015235973185018058
9.781617745172374e-05
0.10981923958657355
0.10996051967089825
0.10991389540519313
0.10985404906812417
0.10989020274482307
0.10998272302677187
0.11018843284608365
0.1100995053445092
0.10650369839885979
0.10762629933176909
0.017117363171273024
0.04350992649331813
0.000661569909663167
0.0004279248013556678
0.0002295640299644676
0.00015275898189160106
9.797506830078238e-05
0.1101022082522519
0.11010307846668324
0.10793640592895516
0.1078446689223916
0.044029864744162185
0.0009068273166053544
0.0006687662397675024
0.0009742526045906003
0.0004259469450722999
0.0002232302866357225
0.00013269517267503004
0.10999842366994594
0.11008759665882865
0.11007971584189487
0.11006666946415361
0.1100679050118819
0.11018693759279514
0.10789955158379982
0.1079350030766934
0.04403579095315067
0.04406486452677457
0.0008439970660598685
0.001049457651203513
0.000527391813512875
0.00033597586447503596
0.0002063193484975863
0.00013298987443855796
0.10783560874710123
0.10776634695329414
0.0440595564999396
0.04407641512283773
0.0010696079677512183
0.0005641904080370118
0.0006977043387439035
0.00030295849934760155
0.00017366804257588114
0.11017038115717512
0.10769250167069078
0.1103399685775672
0.1102667375010446
0.10794317406373768
0.10793627536466216
0.10795365398649537
0.04407733504933415
0.044078888262031816
0.0009859677104594865
0.001122072813244425
0.0005431171714158487
0.0002813716182641172
0.00017419900138537274
0.04407759277159064
0.04407324607207139
0.0010588317593229583
0.0012782197495674276
0.0006568354755999295
0.0003946146904913971
0.00021319780820746914
0.107500815519385
0.044056908243515776
0.10700496611279432
0.10892148957293522
0.04407884186080025
0.044061602764616424
0.044038583635168736
0.001140924151793838
0.00115136873355703
0.0006134918349102282
0.000741891691773114
0.00034665541820317816
0.00021393163226514665
0.0011483237726347575
0.001240198064605743
0.0006984606533259278
0.00040130415677447996
0.0002402256416864832
0.044032368700304685
0.0010716024455846938
0.0435078066270953
0.10048714300234884
0.043507109496221164
0.00111709757706893
0.0010963168060828669
0.001095589619720637
0.0006943460674868773
0.0007996856142095227
0.0004356547990845613
0.00024166070215304603
0.000704468334693817
0.0006861803775043532
0.00040410462540133865
0.00024983383595008485
0.0008727587309538984
0.0008308575024968483
0.01712085629795252
0.0008093659439612591
0.0006601683039638347
0.0006794421233147091
0.00044344973418898327
0.00025123475219700404
0.0005177280302284819
0.0003872046971518966
0.00024022694809405906
0.0005177038260349525
0.0005759639859209189
0.0006293958652235131
0.0004907686990509183
0.0004965472988604788
0.000384666876317133
0.0002409978913518469
0.0003110426738038065
0.00021312954525451133
0.00034835843080056184
0.0003881558583004621
0.00031779520909138435
0.00021358485034956513
0.00021041256383833143
0.00017398511571179944
0.00023163486566941206
0.00017393974575886112
0.00015372562053869864
0.00013278543332881007
0.00013268475878763696
9.789066078877975e-05
9.974314903189006e-05
0.09078056128190423
0.0005833969618872528
0.0001357514031474136
0.0987705657410824
0.0970230206850857
0.00015742459246676714
0.00041163314420159035
0.015530323529602133
0.000556734668706918
0.03931756424761316
0.00013598159226255188
0.03932270168870872
0.039822644804323425
0.0002513922815168029
0.0003914773483233241
0.0008183631467665094
0.0004945509443960834
0.00017819062159324858
0.09790062506629107
0.10024441826207413
0.10026841696368258
0.09760119614690328
0.0398193212907542
0.03986057994985778
0.00020749070537086193
0.0003290120967608307
0.0008248586854094094
0.0004797706063252871
0.0010353855609070552
0.00017859090872255744
0.09798182536771298
0.0398502860154587
0.039864134909636736
0.0009889125446407145
0.0012417754548094797
0.0003195806410817048
0.0005219554198439527
0.00021870270820610979
0.1001349823787473
0.10003133557345777
0.10009465754632581
0.09711687848472017
0.03988326995437508
0.0011558432237467756
0.001319201418516486
0.00032005771873084145
0.0005540426588942761
0.0007116377886780454
0.00021931311779112422
0.10011955319874932
0.09804689514336674
0.03987080290990893
0.0012155498473681663
0.001393429573454549
0.000666129106672773
0.00035384561780290745
0.00024635578997751414
0.001247036713977328
0.09998750957705578
0.09990425700580959
0.09999804810352747
0.10010219913657399
0.09780147228031856
0.039879055490123626
0.00116599040624861
0.0007159565023535605
0.0004040746687768914
0.001226855281305967
0.0002471970865928825
0.09991459262405177
0.09997343533582925
0.09802794834624531
0.039867523506849335
0.0007471170973548681
0.0004058977960512715
0.0007829635260285718
0.000256333744648582
0.001077912849285628
0.09984936209627701
0.09983387309204186
0.09998122862969783
0.10006394360050408
0.09785041694519515
0.03987960866197877
0.0006870428560951012
0.0003916480996974254
0.0011891006280322011
0.0007631685078672739
0.00025702318937571595
0.09984955113993789
0.0999260207731167
0.10009638306767675
0.09796804047114356
0.039859706734900295
0.0004366819125037107
0.0006239689461064219
0.00024716564491832863
0.0012092395511677915
0.0006885313290367676
0.09980460402795971
0.09975519953387786
0.09977480406189713
0.09986447065247403
0.09974139647348224
0.09993773677699905
0.1000951703452836
0.09792177657871293
0.03986786269890548
0.001171948361786801
0.000438547389492901
0.0006558064282967094
0.00024626087950823517
0.09965895868786524
0.09983590491247037
0.10000083608201188
0.10004761494181749
0.0975364704238297
0.03981656741842342
0.0003872631690244242
0.00021755561505498738
0.0009586664363734436
0.0005325928301654612
0.0997563711423125
0.09983416866500798
0.09982752996986745
0.09984840564131266
0.09980126964825914
0.09978688411224404
0.09998784229371249
0.10011912842838634
0.09988369391734868
0.0979495043291615
0.10011151623273483
0.0006917767405500428
0.03981462882817557
0.0011673956842231268
0.0003863472691179064
0.0005232275734768448
0.00021754589768428726
0.09993933530427634
0.09990700015774921
0.10005311861759188
0.09703663062190784
0.10021045598751256
0.03931759345588268
0.09098160602086944
0.0009379775929115364
0.00017623007930382193
0.0003167518346469021
0.0005513513286998775
0.00013407819809612136
0.09976259921419599
0.09982565560395569
0.099884604926223
0.09985306167820004
0.0998311100162951
0.10006395702661018
0.0999712055159434
0.09884307140656154
0.10023676416798616
0.000903994049129786
0.03931625667277681
0.09090720164578965
0.0005353893425074545
0.0006895654113669628
0.000331690728681449
0.00017650835213347637
0.0001343515619651181
0.09994933186142654
0.09995780412870632
0.10024829830429846
0.10013413741863438
0.09901735987575275
0.015502472480568456
0.039310371331544226
0.0006244407278992377
0.0002137537683697207
0.0003561863843860466
0.00015411853246395508
9.856978898384478e-05
0.0998738968353044
0.09993257429072354
0.09992364560351454
0.09995229503772426
0.09992256245377157
0.09998571102299389
0.10018459506249225
0.10008145537683102
0.09678161985947807
0.09783393292701038
0.015526203384368931
0.03930337868242457
0.0006988300368935531
0.00043944593442436726
0.00023285040672604208
0.0001544242734003205
9.861234943142409e-05
0.10011514725460056
0.10010824941637958
0.09812115201868944
0.09805488871918477
0.039808532504703814
0.0009824847703775125
0.0007044677339748561
0.001057151476256591
0.00043763384171138694
0.00022583067699765387
0.00013380975236725019
0.09999859544721695
0.10013750882614243
0.09981781447944257
0.10008225052175705
0.10011049155227868
0.10013461480936332
0.09807017677957783
0.09810263547066486
0.03981504046146922
0.039883901805238195
0.0009113416702451728
0.0011452223899597132
0.0005467694889041981
0.0003431753678770946
0.00020858763500477466
0.00013412953939641832
0.0980135894246902
0.09790107707971177
0.03984806063442003
0.03986196333688861
0.001172930993761778
0.0005850194218367646
0.0007272785322194552
0.0003078212905972987
0.00017556778033402432
0.10016678540886187
0.09791182378060546
0.10032375810947806
0.10020530037341406
0.09810591451338185
0.09812276827923495
0.09809809438832014
0.039877172442223996
0.03988457038503832
0.0010643011423412565
0.0012172546114294065
0.0005607332883487045
0.00028515197080725645
0.00017628451797263513
0.03986819399742882
0.039854208115573546
0.001148260771320676
0.00140229810434228
0.0006676463087862875
0.0004033911427843965
0.00021562949901665786
0.09769708913255153
0.03985044986474598
0.09723177219530879
0.0989693938696168
0.039879067449075614
0.039844597054045944
0.03980647272444597
0.0012250086581800524
0.0012522628566571795
0.0006337131332652309
0.0007739580313185694
0.0003535510630026784
0.00021689899751986958
0.001244136186694308
0.0013578527010632406
0.0007299320876091455
0.0004137395237339125
0.00024393923324115218
0.03980682549357025
0.0011566350303907713
0.039311908479517
0.0912190846082609
0.039300333870219965
0.0012138780396949637
0.0011977604280101076
0.001196205808849396
0.0007204101562490177
0.0008358462136352588
0.00044627799486096626
0.0002445854208023319
0.0007292866259318429
0.0007152504521199533
0.0004126407772073982
0.0002532856900898401
0.0009555346359990831
0.0009045494755317823
0.015511126878682106
0.000863428416494576
0.0006841854596144054
0.0007080773753282275
0.0004556814870054745
0.0002546488868780015
0.0005360391472709582
0.0003955837298435233
0.00024345253238137787
0.0005378569299855198
0.0006118668588410099
0.00066267889152579
0.0005068708313404626
0.0005117782771581909
0.0003935200808273788
0.0002443958652491997
0.0003170545903729416
0.00021571597105895688
0.00035585743458478776
0.00039767469636939773
0.0003240091327704382
0.00021592847914025855
0.00021317168286589603
0.0001758662090750369
0.00023485738485332712
0.00017572473559358893
0.00015518049654043072
0.00013390095682954347
0.00013379456762055997
9.83556612829385e-05
0.00010007176393916485
0.08299476747540066
0.0005982621269112996
0.0001367336641995249
0.09044605562466694
0.08882474932667551
0.00015847638843572993
0.00041948642987066305
0.014124974467428388
0.0005676589390903097
0.03571289513540147
0.00013668758736725797
0.03571569264855911
0.03619742122319525
0.0002545666137771456
0.0003977234234260589
0.0008423400120729804
0.0005048369723528465
0.0001795360834822194
0.08967258603290064
0.09182920819108403
0.0918900427884772
0.08937069425283281
0.03619917929056341
0.03624786493579577
0.00020928428992817122
0.0003333989313858481
0.0008554262855845014
0.00048411723000688707
0.0010847093452308254
0.000179851590238131
0.08975618941741681
0.03624661910158673
0.036270221520733704
0.0010295427181433597
0.0012810957960880094
0.0003242096587992454
0.0005333487021465464
0.00022047695775154796
0.09172605588601968
0.09171901404780705
0.09178647362428059
0.08949834298397098
0.03627202212686342
0.00121107269509418
0.0013720372789175986
0.000323765645665859
0.000567352886280626
0.0007320178519133355
0.0002207624614113209
0.09173473515381379
0.08981422022534843
0.03627641448212835
0.001265355556854906
0.0014462784694866267
0.000681870984536039
0.00035870367411116797
0.0002480727940041201
0.0012911080504901832
0.09162918131390634
0.09153568692272268
0.09148425955011104
0.0916942481545551
0.08955382697836002
0.03627455986824735
0.0012122493322476076
0.0007373737677657876
0.0004104769042384569
0.0012754044838102908
0.00024968722824341403
0.091620834047211
0.09170311831662274
0.08978219143944208
0.03626364248987779
0.000768624443022475
0.00041167200703351523
0.0008043352802733327
0.00025826474113439275
0.0011365334802913643
0.09149116108509836
0.09153882166769037
0.0916198614192416
0.09171125340621417
0.08961923063562614
0.036274506387482086
0.0007038358901585418
0.00039644878525079157
0.0012385397946825976
0.0007848672460170679
0.00025962756048751796
0.09153340861142387
0.09160372878026674
0.0917433982271384
0.08969327742044891
0.03625345361580962
0.000442242966074324
0.0006378454216269138
0.0002482485237967283
0.001260075032947267
0.0007063596098862002
0.09150104603437371
0.09147390188160488
0.09143860685625047
0.0915217909257519
0.09143497585031471
0.09160191967562412
0.09172635827477801
0.08962939995357862
0.036247787476130125
0.0012138326722601596
0.0004477512102833823
0.0006718402926777688
0.000249206240455403
0.09153412665004579
0.09141668071237023
0.09163851497646373
0.09174390617644707
0.08929623729575328
0.03619744109771074
0.0003929569409633412
0.00021900986091349906
0.0009966026840961273
0.000544379074035808
0.09142447973101848
0.0914869820266424
0.09148196158647615
0.0915128579494448
0.09148905924700566
0.09145345894668329
0.09155622204740209
0.09167368857520472
0.0915544069893441
0.08965777541886365
0.091839748117673
0.0007111135640226095
0.03619972231602931
0.00122165676862908
0.00039220101367633085
0.0005293917928126913
0.00021921715660970953
0.09152695257940051
0.09152081886215352
0.09171609172289512
0.0888434168328951
0.09187474175688363
0.035704556567886014
0.08316736797531393
0.000965372476677737
0.00017754151285951552
0.0003219336789494977
0.0005648947561046282
0.00013485144920213638
0.09147271289909784
0.09150679603533929
0.0915522310197775
0.0915300406293145
0.09150671929588326
0.09168759742254942
0.09162011679977637
0.09057272586253656
0.09190514092802682
0.0009329961194840896
0.03570742168290378
0.08311333172566145
0.0005488882627130678
0.0007120509416951418
0.0003344795689848143
0.00017823506181024584
0.00013497521460589714
0.09165930943215937
0.09160907212501575
0.09185903455929055
0.0917791217269274
0.09064531986636498
0.014091003471563553
0.03569614024867727
0.0006416192381967143
0.00021565510488433836
0.000361957346610453
0.00015548221727464841
9.872434202579313e-05
0.09154666951619472
0.09153295312336364
0.09159370185368589
0.09161394606988557
0.09159151372216844
0.09157162396303274
0.091774139001842
0.09173665247652907
0.08857620577657174
0.08958600413345474
0.014095681616628206
0.035700649059047795
0.0007211408265899738
0.00044748427471539393
0.00023446811234958977
0.00015549372351215078
9.893129634954697e-05
0.09173840539249965
0.09170549195212177
0.08985356866505624
0.08979496210227797
0.03618543014173235
0.001024852078052198
0.0007256490045490463
0.0011057292962780808
0.0004454255339843718
0.00022798914315039334
0.0001352474424738646
0.09166050581071492
0.09171557813990738
0.09172336095061158
0.09169898199947193
0.09170577284448782
0.09177875164265059
0.0898340005161763
0.08985265955644825
0.036193600343895675
0.03624332423927792
0.0009475547516394273
0.001204876127492583
0.0005593832558900742
0.0003477839194935132
0.00021024538863008877
0.00013497344274010162
0.0898086698119447
0.08971093781295089
0.03622842466497661
0.03625319215250687
0.001211934915851396
0.0005995850762968999
0.0007490188947690596
0.0003117057304529479
0.00017655105709169045
0.0917859978211375
0.08964519865166701
0.09183097185731243
0.09184743415079032
0.089820360210385
0.0898703646538868
0.08986302076977597
0.03626299790386317
0.03626760193502358
0.0011217670365413115
0.0012579335171594747
0.0005734993395574033
0.0002883701761417278
0.00017757578916806715
0.03625054512946808
0.036249928576843435
0.0011949736819990837
0.0014553930349288505
0.0006853615512652531
0.00040893042736733206
0.00021729003480070632
0.08950269065624161
0.03623760194624761
0.08903870243763694
0.09066219280773856
0.036262432086599565
0.036232575182274254
0.036418826080726094
0.0012774391104756304
0.0012992089102078358
0.0006493260768132483
0.0007944505218377082
0.00035788837256662425
0.0002182671641698217
0.0012907956479903092
0.0014113445748873106
0.0007490042213167303
0.00041804248695591286
0.00024534577999720653
0.03618290079322486
0.0012048182208397988
0.03569870942101803
0.08344768539205369
0.03569649697486019
0.0012575680566072923
0.0012479752138522355
0.001248576633735785
0.0007405860989827201
0.0008623764887272768
0.0004522560748877952
0.0002474818726032631
0.0007476104702498097
0.0007363022678880884
0.0004180775059064532
0.0002551811712538645
0.0009752266208578957
0.0009338512288896478
0.014090295197672034
0.0008921603943603775
0.0007020053662529494
0.0007286383881255885
0.00046138168424772344
0.00025669390250093136
0.0005471622384392738
0.0004014152835137508
0.00024539872061295404
0.0005480687134080768
0.000620620607430965
0.0006804254688115625