# vtk DataFile Version 2.0
HASEonGPU Tet4 gain medium input
ASCII
DATASET UNSTRUCTURED_GRID
POINTS 4210 double
3 0 0
1.8369701987210297e-16 3 0
-3 3.6739403974420594e-16 0
-5.5109105961630896e-16 -3 0
3 -7.3478807948841188e-16 0
1.5 0 0
1.4881720519717168 0.18799985034645639 0
1.4528747416929466 0.37303483074728216 0
1.3946647288323772 0.55218682902701688 0
1.3144600200657954 0.72263051115257304 0
1.2135254915624212 0.88167787843870971 0
1.0934529411321172 1.0268206588930329 0
0.9561359846230344 1.155769864163684 0
0.80374019246849482 1.2664918882530225 0
0.63866893734760899 1.3572405786990294 0
0.46352549156242118 1.4265847744427302 0
0.28107197187858712 1.4734308760930328 0
0.09418577929397029 1.4970400926424072 0
-0.094185779293970096 1.4970400926424072 0
-0.28107197187858723 1.4734308760930328 0
-0.46352549156242101 1.4265847744427305 0
-0.6386689373476091 1.3572405786990291 0
-0.80374019246849526 1.2664918882530225 0
-0.95613598462303462 1.155769864163684 0
-1.093452941132117 1.0268206588930333 0
-1.213525491562421 0.88167787843870982 0
-1.3144600200657952 0.72263051115257337 0
-1.394664728832377 0.55218682902701721 0
-1.4528747416929466 0.37303483074728222 0
-1.4881720519717168 0.1879998503464568 0
-1.5 1.8369701987210297e-16 0
-1.4881720519717168 -0.18799985034645644 0
-1.4528747416929466 -0.3730348307472825 0
-1.3946647288323768 -0.55218682902701743 0
-1.3144600200657957 -0.72263051115257249 0
-1.2135254915624212 -0.88167787843870959 0
-1.0934529411321172 -1.0268206588930331 0
-0.95613598462303429 -1.155769864163684 0
-0.80374019246849449 -1.2664918882530229 0
-0.63866893734760821 -1.3572405786990296 0
-0.46352549156242134 -1.4265847744427302 0
-0.28107197187858696 -1.473430876093033 0
-0.094185779293969818 -1.4970400926424072 0
0.094185779293969249 -1.4970400926424072 0
0.2810719718785864 -1.473430876093033 0
0.46352549156242084 -1.4265847744427305 0
0.63866893734760777 -1.3572405786990298 0
0.80374019246849393 -1.2664918882530234 0
0.95613598462303395 -1.1557698641636844 0
1.0934529411321168 -1.0268206588930333 0
1.213525491562421 -0.88167787843871004 0
1.3144600200657954 -0.72263051115257304 0
1.3946647288323768 -0.55218682902701799 0
1.4528747416929464 -0.37303483074728305 0
1.4881720519717168 -0.18799985034645697 0
1.5 -3.6739403974420594e-16 0
-2.9092010630146201 0.73249515884859218 0
-2.5948422592105751 -1.5055874762582662 0
-2.638638710324535 1.4274402933464378 0
-2.8978884492196491 -0.77604290239438267 0
-2.4227068937481744 -0.29854480912972997 0
-2.2388459313433096 0.80558197238431417 0
-2.1185483491509167 -2.1240887177939527 0
-2.2762777337060913 -0.88614019046409476 0
-1.8284026793996355 -0.30461628664767487 0
-2.3539448847492319 0.28920205505325541 0
-1.925117162062326 0.23371179250294496 0
-1.786888953758706 0.82090200043143891 0
-2.029363796594148 -0.52189541073442902 0
-1.629488009228552 -0.35615711274498935 0
-2.0803231070301726 -0.083492539902757262 0
-1.6755721404685429 0.20772020998593044 0
-1.9165499560764339 0.52102211743306048 0
-2.0300899814367166 1.266754822127965 0
-2.1964213531716528 2.0434610958106756 0
-1.8561330767803648 -0.91743606522273857 0
-1.589270957140853 -0.86153152545695189 0
-1.7343328997797542 -0.60722692470395634 0
-1.5664914951235849 -0.5228335341948539 0
-1.6477868617856892 -0.15715135467004851 0
-1.6437460384134761 0.051158601521915585 0
-1.8041893772262778 -0.023743408280853934 0
-1.6547987547448935 0.37371238924561423 0
-1.6180315114053807 0.5510125353778732 0
-1.5268798570482995 0.69238319934821035 0
-1.6388239287711379 1.0850038388965961 0
-1.6875760156370767 1.5197012524492868 0
-1.5593336036955092 2.5629043564563472 0
-1.4996988441497003 -2.5982500727471542 0
-1.9802297060357401 -1.3698089453659321 0
-1.5762166081711686 -1.1573249426138803 0
-1.4007627594884051 -0.9085974167883949 0
-1.4989064337745857 -0.70379764388621613 0
-1.2625610835544718 -0.40520734113723156 0
-1.325228904412973 -0.23859163392566166 0
-1.2943948053394074 -0.073335637986973831 0
-1.3427827258590763 0.089656682569852653 0
-1.2741279578802678 0.24872482112065408 0
-1.2821538783158424 0.40953240146002873 0
-1.2027516339180548 0.57198522631513882 0
-1.4812954882130449 0.84895039853631105 0
-1.3733470370259659 0.98381510339478051 0
-1.4063508735593937 1.2529923318366569 0
-1.5224835441189251 1.9183802856671823 0
-1.3734112884475305 -1.963044106645158 0
-1.6217056230882707 -1.606012273936521 0
-1.3394498385626938 -1.328073048933422 0
-1.163148119633501 -1.1842337395038438 0
-1.3070589534128838 -1.0649283111320864 0
-1.1113388727093745 -0.71495559522356988 0
-1.1950442737690117 -0.56412598609081921 0
-1.0750534249115704 -0.39661900603232197 0
-1.153617374305147 -0.2288795158674283 0
-1.0803890641793377 -0.068198157584990579 0
-1.1609975453446943 0.086397503654689151 0
-1.0640688638417983 0.24408334498195666 0
-1.1116968993602518 0.40207362957839665 0
-1.0126556824674025 0.57215597613873848 0
-1.1166879670667695 0.72548496557727571 0
-1.0215992045429356 0.87877978378487465 0
-1.2449316405281541 1.0936968153748481 0
-1.2528829909072468 1.4890660584210109 0
-1.0178460593377705 2.2349390410799095 0
-1.1799297904464485 -1.5674061482718298 0
-1.053995649329464 -1.3194350766749008 0
-0.90549945501362272 -0.99679158350665542 0
-1.0121778523560141 -0.85565639728473197 0
-0.90058892009910052 -0.70847393739939535 0
-0.99455595253628404 -0.55670121090994473 0
-0.88085370431514531 -0.3937277336806414 0
-0.96679865129551756 -0.22917106497450077 0
-0.87473932892886563 -0.067133388022849017 0
-0.96287522754762223 0.089737035928369666 0
-0.86096791778617987 0.25359720820182052 0
-0.9291275978649064 0.41075915724199275 0
-0.82710198310864169 0.5901914883258691 0
-0.91926261194328718 0.74398581909229744 0
-0.87753040470528454 0.9586157336022012 0
-1.1390787781582592 1.2385909081969002 0
-0.99471085676146187 1.3503173090428844 0
-1.1194912599855567 1.7930890994062907 0
-0.80032557569043294 2.8912763624767202 0
-0.76650813498443493 -2.9004250157097853 0
-0.92596498484480139 -2.2420169147785218 0
-0.93065761143326786 -1.7641322268359176 0
-0.76167743586714198 -1.5103902682172938 0
-0.91978973580081902 -1.4439707153547374 0
-0.7471457695070477 -1.0596134169643181 0
-0.79988562703292954 -0.86114847093426927 0
-0.69545438153746431 -0.71156615669761192 0
-0.79144204845223087 -0.55273830651967704 0
-0.68372981412882372 -0.39127236548686906 0
-0.77389003567853221 -0.22851799349297833 0
-0.6758485354502406 -0.062509188282699774 0
-0.76578475197800677 0.097233351211423291 0
-0.66591199087864228 0.26899409487517151 0
-0.74487864822602201 0.4295023019591197 0
-0.6541142583383317 0.62066143154172349 0
-0.75580089750440516 0.79138852320325104 0
-0.67091592346472706 0.95464566450371424 0
-0.77487765708040479 1.0995834017989343 0
-0.79869857593483573 1.4387056306916721 0
-0.93665607595392431 1.5546038975791305 0
-0.77864996168239464 1.8161318328826686 0
-0.61353808585111624 -1.9912892840373866 0
-0.62323154969557781 -1.7089059084720191 0
-0.57476832037177294 -1.5368146313824718 0
-0.63793544677181879 -1.1830000433905992 0
-0.52751653788231179 -1.0426931925797678 0
-0.62017295488032353 -0.89424936878366901 0
-0.50669515487228767 -0.72846919149549239 0
-0.59154985920645597 -0.55404564522811806 0
-0.48878995257535085 -0.38914272132141131 0
-0.58006441956412302 -0.22480175810960359 0
-0.48164302349733218 -0.055593658233160488 0
-0.57293926956204289 0.10779851958094987 0
-0.47652327682058099 0.28339409608037769 0
-0.56402551364572673 0.45082301866678548 0
-0.46762066634198834 0.6261494430069231 0
-0.56497407774447306 0.7934328578233576 0
-0.48961916673243916 0.97691456553315903 0
-0.60618811689263163 1.1497232480528154 0
-0.4742094490475352 1.2590003451647966 0
-0.66463891755205384 1.5629920717612207 0
-0.36131365857486558 -2.3511329639786838 0
-0.34793084410212505 -1.8626017024234176 0
-0.39289751616072954 -1.6245634669036431 0
-0.31463216144960332 -1.2915179593386732 0
-0.46642659870548159 -1.2272171454012473 0
-0.33491084033783763 -1.0670527789485813 0
-0.41631791924388989 -0.89039663954563619 0
-0.31181964526899975 -0.7222331744974414 0
-0.40114756376878036 -0.55847270264344362 0
-0.29780899185629278 -0.38891562830600757 0
-0.38777029034256993 -0.22078898707456487 0
-0.29014568668542778 -0.050365931330651592 0
-0.3829147870845242 0.11678225684600209 0
-0.28603439902696814 0.28874089935748026 0
-0.37652314225038691 0.45723474206909159 0
-0.28285935985123906 0.634056233724409 0
-0.3812739593352989 0.80596000288030079 0
-0.28432579640457945 0.96717187850060327 0
-0.38401137154317538 1.1193412798190607 0
-0.28929041088106155 1.2996653185743416 0
-0.48649810464939913 1.5786338372237843 0
-0.50956987991026059 1.802700551049921 0
-0.10156301702722029 -1.9776698354740183 0
-0.18850645867119584 -1.6711101166352897 0
-0.12491842961146801 -1.333492551777415 0
-0.19531088201376173 -1.165235070178507 0
-0.11396487659381563 -1.0169604998755526 0
-0.22711736892693501 -0.88992552182652396 0
-0.11845331805017587 -0.72069302201854535 0
-0.20739099047019754 -0.55455554346669034 0
-0.10550087553679044 -0.38644865819451252 0
-0.19736124887727366 -0.21878420354912947 0
-0.099429935623401258 -0.048143548431330535 0
-0.19246831389354235 0.12043663192685652 0
-0.096305895709434486 0.29164933055122599 0
-0.18946837129989327 0.46219349980575375 0
-0.093646175437730308 0.632792208494797 0
-0.18750683698080658 0.80307016294956868 0
-0.093180419620707694 0.97837378048707846 0
-0.18910737309012304 1.1435649848320233 0
-0.099982572689058719 1.3266515631625531 0
-0.32585079229692676 1.6531691556466916 0
-0.25725985857269978 1.9385028597941227 0
-0.58126105676834439 2.18968912022916 0
0.72890636030000433 -2.9101023143834968 0
0.13870214135764744 -2.3883760262207527 0
0.0063019320178563437 -1.6943844456388202 0
0.066747659465658471 -1.3392247008584173 0
-0.0043774832355384184 -1.1757340807926229 0
0.091920900400353861 -1.0209382459652763 0
-0.01412700401732131 -0.86652712359602013 0
0.086764461817082472 -0.71218318669596081 0
[...]
POINT_DATA 4210
SCALARS betaCells double 1
LOOKUP_TABLE default
7.122206694045462e-05
7.094801778396594e-05
7.159343574578084e-05
7.087396028604782e-05
0.0
0.06305417162514482
0.06305587196416168
0.06305771669942217
0.06305729152650329
0.06305804349174485
0.06305763210084489
0.06305846432721894
0.06305948423660979
0.06305883442324751
0.06305796490111709
0.06305863380974899
0.06305964940196081
0.06305903335990194
0.06305806629504271
0.06305870884360197
0.06305960007135498
0.06306179854888211
0.06305917600929044
0.0630586564164896
0.06305827383224813
0.06305817694758907
0.0630579133655989
0.06305976820348444
0.06305919489552711
0.06305833474232381
0.0630589378142741
0.06305904001396342
0.06305749961651093
0.06306476056481432
0.06305945473396865
0.0630577662214926
0.06305839445476541
0.06305783463738648
0.06305749989409765
0.06305830907547386
0.0630586981429556
0.06305904694710368
0.06305850132874731
0.06306276578942824
0.06305858811245552
0.06305678935005327
0.06305755808506777
0.06306018798397836
0.06305797498989955
0.06305848197743658
0.06305788545324205
0.06305886231306455
0.06305794663134187
0.06306089642966196
0.06305755787878478
0.0630602941064474
7.172329568166947e-05
7.190575146673396e-05
7.058558156043523e-05
7.215169467830783e-05
0.00012595491224210207
0.0001345800438698061
7.119085521748231e-05
0.00012580672317708154
0.00028972304058678966
0.00013690184509061523
0.00025255579181377054
0.0002424946971433474
0.0001953665950165758
0.0004392190761736527
0.0002003017267952252
0.0004213898045667837
0.0002352009363078565
0.00013415046698112533
7.090533816650793e-05
0.00020407832095549065
0.000318504073175974
0.00029957594005476087
0.000456378126459124
0.0004753539844451335
0.0004649135838341681
0.0003192333321199274
0.0004277801602288599
0.00041102084526192475
0.00044155956661188285
0.00024238139648175206
0.00015540630722075857
7.161023603083229e-05
7.101179357161049e-05
0.00013032894149072116
0.0002451951158308657
0.00044177392286128946
0.00045953793189410343
0.15788828540065494
0.15704428246014193
0.15833863793389963
0.157074388109947
0.15833933889700177
0.15707239591363373
0.15767480745422138
0.0004070183900032334
0.00042415428626389013
0.00027732591063891825
0.00012450012227031504
0.0001320700235001199
0.00015231392661411433
0.00027680606876802127
0.0004540997459376207
0.00042783143603522154
0.15797785070949666
0.15801378466402408
0.15863669573157313
0.15857132763174597
0.15857279775066416
0.15862584893834167
0.15855418979708188
0.15860818452136213
0.15863638461199916
0.15766561555691855
0.15699788879592844
0.0004642662413175966
0.0002499189333361407
0.00012353754880964915
0.00024309325995014696
0.0004293034378063254
0.15696310713320255
0.1579075338946465
0.15852683619666327
0.15864481332777505
0.15849971884747927
0.15848841999277136
0.15834488046081316
0.15846554565112
0.15836929684088927
0.1585045318229762
0.158525370706775
0.15864391748165635
0.15839194060728198
0.00042782162809348043
0.000440142304244493
0.00019252223885599405
7.071504102270951e-05
7.179565439899128e-05
0.00012814927666738007
0.00023063639379734233
0.000424714671274199
0.0004051805075043579
0.15844677814148989
0.15860917989713766
0.15847201980278952
0.15842497427837446
0.15836226563789635
0.15839500369827808
0.15833837290771158
0.1583833851472898
0.1583463748738185
0.15840817192455053
0.15835808075220376
0.1585923535386202
0.1586600936021253
0.15712553301899723
0.0004675992444973184
0.0003155873166629729
0.00023603361655062712
0.00020158291390475847
0.0003123278882547679
0.00047004762975950227
0.15717682643839956
0.15860966219071287
0.15856788318343332
0.1583752958072963
0.1583747851535148
0.15830460149900816
0.15829136046684356
0.15825803617601042
0.15829553363760393
0.15829592590505284
0.15828955719435212
0.1584008832215062
0.15852005935024524
0.1585863137995025
0.15837349838826484
0.1571486405876477
0.00041179480300880257
0.00013605378148567784
0.0002698765910525485
0.00043577674827603957
0.15770566464597158
0.1581904774086066
0.15861605235603762
0.15848372247222875
0.15830072909017068
0.15835817066633612
0.15828988370923486
0.1582849560239187
0.158243380533651
0.15813084415820527
0.15823505661042336
0.15834112779293588
0.15833890865090122
0.15842332389617803
0.15852801634490657
0.1586726184649032
0.15766271870621035
0.00046373274234338854
0.00028104288994366196
0.00023501972655276917
0.00044780596455889403
0.1573505753521199
0.15866795796160166
0.15853062622757205
0.15838599096902314
0.1583299905578961
0.15828811107200286
0.15829142438380586
0.15826002098911154
0.15822930921980896
0.15825841597930565
0.15826480926703165
0.15827987368203816
0.15831932152649064
0.1583895783486507
0.15848489927443715
0.15864791525184227
0.15773911374178198
0.0004229386810443179
0.00024459927705301364
0.0001551658777326407
7.148714507985898e-05
0.00013394561367860476
0.00041924957494040015
0.15733570915395306
0.15865493433044345
0.15852414636472986
0.15840691751189706
0.1582935727171941
0.1582977627740588
0.15820192856732215
0.15823854172278068
0.1582341235271121
0.15820463641559454
0.1582562409372832
0.15826239628717712
0.15830273405176556
0.15837916360909537
0.15845486975032164
0.15865315304318628
0.1577434083692124
0.0004285936335333206
0.00031133851478653185
0.00012428739514567036
0.0002488351760912621
0.0004382044125419753
0.15654569571458404
0.158642305738758
0.15856952011356854
0.15841683272255871
0.15834675112531754
0.15829277355246474
0.1583036100158746
0.1582553445413768
0.15827263287956533
0.15821860607725602
0.1582664374327239
0.1582726556204274
0.15833738029290645
0.15839389547293595
0.15846106024722828
0.15866614377431676
0.15768280010837582
0.0004654778716588929
0.00042922497040869944
0.0001306397444557722
0.00012672723918021422
0.0002895860539367835
0.00045512816216145783
0.15845482585168763
0.15864492435224156
0.15849061703457304
0.1583924774498696
0.1583078274793341
0.15833954792234461
0.1582223635026621
0.15824891490011614
0.15827697789569167
0.15831049618027987
0.1582979373124949
0.15837502117870159
0.15840808294217754
0.15856983293459756
0.15865829305108095
0.15713105081329895
0.00044573211749035697
0.0003254399638058043
0.0002577130706623663
0.00019293049245825745
0.00015457691952046595
0.0002422728140615925
0.00044372900721627073
0.00035824979847881897
0.15762136831505238
0.1586530754401101
0.15848898400054687
0.15849315015214419
0.15838236548511367
0.15837534374898898
0.15831660319341362
0.15833251663788225
0.1583192834907572
0.15836628708244685
0.15835433987184802
0.15842734670232506
0.15848441725530146
0.1586535568370867
0.15830807395313579
0.00043780446148485594
0.0004514792323299171
0.0001990330612864215
0.00020102381457153757
0.0004399157745373729
0.1569361526234933
0.15765777306856668
0.1586420389010227
0.15858993815762776
0.15846533367143567
0.15849119460468797
0.158411821355478
0.15844938861655422
0.15837076443051684
0.15844074374402825
0.15842293568390076
0.15852594054791352
0.15858243021429705
0.1583927155277257
0.15713715259224548
0.0004480829762725513
0.00028777229876453855
0.00012361495759396574
0.0002616653801150423
0.00044633373685167493
0.00045120145604373216
0.15795622299060993
0.15803282507061533
0.1586066300484149
0.1586465237127456
0.15850140976407862
0.15857924861099584
0.15851633948202132
0.15857694561743593
0.15850073582265092
0.1586044055914388
0.1586820341975691
0.15702379912502773
0.00045626550920569695
0.00028907455889156644
0.00018890270616149372
7.18482768609154e-05
7.130435234698837e-05
0.00012908622521058788
0.0003161462431339363
0.0002778058940418128
0.0004372840123938834
0.0004666520582467755
0.15801489270697014
0.15792185869427808
0.1586688707956014
0.15843811941850033
0.15866309706347925
0.15844063531501773
0.15862706113482034
0.15766966719785155
0.15764659495609978
0.000413387120414443
0.00042899966666939114
0.0003072144858864032
7.08173627536144e-05
0.0001900718508098184
0.00018383751078405173
0.0003023325398821032
0.0003967202879743613
0.0004559497534501655
0.0004455477994992171
0.15710302875117915
0.00043224246432574376
0.15715507002512585
0.0004584496927519819
0.15710992664324971
0.0004458379590135569
0.00046913382669738833
0.00024273858964072543
0.0001932161150815834
0.00012420800536019495
0.000230540531750796
0.00030685700510326694
0.0002977308874370381
0.00045399775741986867
0.0002918150630473254
0.00046092291520804434
0.0004366122599670717
0.00028162834130315395
0.0003108752832039083
7.038817561097877e-05
0.00012017820627927427
0.00019254661417036952
0.0003847832542841004
0.0002940829255361055
0.00012198354821574626
0.00019118626740260644
0.00012612128023747405
0.000207182675844109
0.00021694243872361977
0.00018911956593615153
7.070865391763612e-05
0.00012959476941977043
0.00013458812881829294
0.00012392987677762115
7.051015573335415e-05
0.00012042813591037739
7.07199310948344e-05
7.086499710650972e-05
7.076600920335256e-05
7.118253633469513e-05
7.191122867595099e-05
7.158181761909877e-05
7.185011965788887e-05
0.0
0.055071224402148386
0.0551790554751894
0.055177929850924456
0.05517751236678344
0.05517637220706104
0.055183096582683104
0.05517743476480472
0.05518022639101542
0.055181414399923946
0.055181171328517714
0.05518091779324069
0.0551805556407584
0.055181186702672934
0.055181151887337535
0.05517836807967906
0.055180415429781915
0.05518567006768784
0.05518340265276954
0.0551795836895487
0.05518314822442276
0.05518279906258969
0.0551831644541993
0.055182114849876396
0.05518122425079238
0.05518076756071065
0.05518186266967149
0.05518035472700818
0.055181133682982775
0.0551816396159822
0.0551929139138679
0.05518149669094863
0.05518361794079889
0.05518121001707003
0.0551786796449719
0.055180039685813614
0.05519193545457734
0.05518343468373172
0.055180639497448385
0.05517855238018067
0.05517876751447491
0.055182257237093246
0.05517782541768432
0.05517764360287089
0.05518111808360126
0.05518881439403966
0.05517692381845241
0.055177628964398574
0.05517822797210134
0.05517887395950495
0.0551771546649796
0.05517739597645853
7.210127354729986e-05
7.155138922937969e-05
7.242047983135048e-05
7.103482349015166e-05
0.00012696808472212242
0.00013737797932683918
7.2295949056579e-05
0.00012684400693861898
0.0003016615041424244
0.00013875081912008774
0.0002592912797365732
0.0002502155253458846
0.00019967408595261758
0.00047767640395113194
0.0002042379506885464
0.0004545394426358094
0.00024182905264107503
0.00013535527038475447
7.188830967366906e-05
0.00020818168646876458
0.00033348580124082966
0.000311899393309145
0.0004974395481174598
0.0004966820130416439
0.0005061555303639176
0.00033486953213724606
0.00045561556386166996
0.00045365477264565455
0.00048334946524002136
0.00025145212456163335
0.00015844767409453698
7.216797880269578e-05
7.220436324111753e-05
0.00013314796538993424
0.0002521785813168239
0.0004797125295510716
0.0004962299956051754
0.14057396697364397
0.139838981717214
0.141094608213934
0.13985773431192808
0.14105131605615545
0.13982085561358487
0.14041599074796876
0.00044245665138413726
0.00046742641109840397
0.0002891631460901435
0.00012646966828620015
0.00013318646179300464
0.0001549590181652081
0.0002859151143814588
0.0004946923153084949
0.0004651399755983968
0.14065487544075483
0.14068701781498988
0.1412444789897808
0.14126717442267828
0.14119358457112666
0.14116716930058795
0.1411584670612027
0.14128580501234456
0.14124254346449153
0.14035749842188142
0.13976611816497764
0.0005004000335396128
0.0002558592046758622
0.00012515137248951243
0.0002509610875575036
0.0004625826709427048
0.13980377220326495
0.14055173285918224
0.14118568662358402
0.14123109794796565
0.1411140484770403
0.1411267597825618
0.1410641027131352
0.14111044476535867
0.14101535645634294
0.1410874688033526
0.1411023029541491
0.14124324668395605
0.14101368201536987
0.00046864826186696263
0.0004765145774189394
0.00019582341539900374
7.134821766738194e-05
7.161461231153357e-05
0.0001293563576428902
0.00023547352572036987
0.0004539910185029869
0.00043323842470376154
0.14106884897631441
0.141276444406783
0.14113056993249223
0.14101950326114177
0.14103118315996485
0.1410108696851623
0.1409355138743292
0.14101852318193014
0.14101839857593096
0.14101988955419228
0.1410353740877517
0.1411754414035606
0.14121814252286677
0.13990961840795804
0.0005138957912461584
0.0003275124898288945
0.0002446385619929544
0.00020393244373389065
0.00032526161242639494
0.0005164865110891116
0.13986627512334096
0.1412477100950863
0.14121871472390637
0.14109484004735764
0.14100072658556642
0.14093004022664882
0.14098139929764447
0.14089954731207296
0.14098368622607788
0.14092982051719857
0.14093974672730794
0.1410303001200825
0.14106260750859184
0.1411939616896607
0.1410105236715916
0.13987686771580185
0.000457600963366671
0.00013768426992667824
0.00028101207114083836
0.00047866838103439443
0.14050112184121485
0.140870739382214
0.14123738901112526
0.1411085030388203
0.1410344221013354
0.14099381825191076
0.14089679330630503
0.14088157920837951
0.14087973903896858
0.14089523386188635
0.14087434091334586
0.14092850733920673
0.14093995124029826
0.14102888644752767
0.14108524970481398
0.14123512244482087
0.14038463194932294
0.0005054005441611468
0.0002914550407626752
0.0002415193996007605
0.0004707624488998228
0.14009985452776488
0.14124799339162947
0.14107661484967873
0.1410453804806385
0.14098907364166421
0.14097946311729495
0.14089318048229707
0.14088545278653966
0.14090719546722033
0.14086640818812907
0.14089500143479625
0.14091895729002357
0.14098235831352285
0.1410370976706361
0.1410985251562247
0.14119756004323916
0.14038868688745385
0.00045434701759801204
0.00024948008839508065
0.0001583441622138192
7.24893807177015e-05
0.0001353123337605547
0.000457976313656581
0.14006085949909386
0.14125296027749026
0.14118583533453619
0.14105937885200726
0.14099660598524566
0.14088519203555985
0.1409277490237825
0.14084862833254042
0.1408896499731389
0.14085502004265735
0.14089231616070064
0.14095118155695563
0.14098417967673324
0.14099855823834595
0.14105066268318656
0.14118629923750106
0.14048998415250474
0.0004606216740631592
0.000323142470936025
0.00012615231772043534
0.0002567916807614466
0.00047421964658966615
0.13933403842362602
0.14132272520339123
0.14113618708303644
0.1410564738269049
0.14098951972335577
0.1409902889579252
0.14093248577032957
0.1409298834153048
0.1409345216747503
0.14091566648172188
0.14091995807023536
0.140961285497102
0.14098442689927485
0.14098746937041642
0.14111580940855814
0.1412578414919942
0.14037615522235794
0.0005157871281584558
0.00046412791807204465
0.0001330122459715439
0.00012623462307234762
0.00030076373029426875
0.0004949371755834685
0.14109762978666646
0.14122366731206143
0.14109118951561694
0.1410581033353582
0.14099130815338623
0.1409207171363617
0.1408925627046
0.14093786140523096
0.14094449331505068
0.14085673148603217
0.1409571732808414
0.14100880052639717
0.14103501642142707
0.14120233964017212
0.14128001869435783
0.13988289317202487
0.0004878099358560248
0.00033914963106541213
0.0002629506469585158
0.00019649002125865237
0.00015634352616380104
0.00024809151790644205
0.0004711434420306003
0.0003826706559328112
0.140366062539587
0.1412723393884536
0.14116426736206603
0.14113587701534777
0.1410312839677566
0.14106866616951372
0.1409904508433257
0.14095685000712585
0.140968273029759
0.140985637298253
0.14099684854650665
0.1410351561495481
0.14112758531048172
0.14129309843100124
0.14104768560807981
0.00048043105962368226
0.0004986562045116499
0.00020314830736135338
0.00020550334300523026
0.00048493619673380605
0.13964516067802585
0.14046995673713364
0.14128429710952506
0.14112073466913655
0.1410774011841723
0.14108940398951517
0.14105951421285318
0.14107741748083752
0.14097914573473738
0.14105923878989876
0.14097231158283255
0.14115721095210604
0.14116397769720287
0.1410692886587844
0.13991126498815984
0.000490710815882205
0.00029879296790463896
0.0001251867179350557
0.0002708727358430305
0.0004834454419553081
0.0004992309975171422
0.1406342438937103
0.1407186665046604
0.14122077559984494
0.1412065026422181
0.14113400370456625
0.1412043006443182
0.14103094022884813
0.14117281125440856
0.14112087200596332
0.1412484278506093
0.141290222891476
0.139800970360457
0.0004976188048136697
0.00030165250110478523
0.0001940822434770229
7.135559769104852e-05
7.181844723203519e-05
0.00013187857828318467
0.00032926411269929305
0.00028610135754956865
0.00047725535542084054
0.000509416833076235
0.14073378870256184
0.14061853924151002
0.14125132328311465
0.14108169338277907
0.1412722393748546
0.1410787377999954
0.14125817441069757
0.14043276718425748
0.14044839610313362
0.00045016249214146846
0.00046866311774832224
0.0003177399766484245
7.202383451890512e-05
0.00019447341161163813
0.00018814607317286345
0.00031566678658068864
0.0004202404733400592
0.0004975201076930576
0.00048607470233915897
0.13985366038675198
0.00046285726836928833
0.1398730870937209
0.0005028014513100794
0.13985926401688697
0.0004932552843492692
0.0005034874098750756
0.0002501696037526656
0.00019789474568498406
0.00012374659071577536
0.00023692443975888172
0.00031924213406012196
0.0003083890621886786
0.0004911096811328156
0.0003036117291792185
0.0004984583502655641
0.0004743247059167811
0.0002938782552207521
0.00031966434243983224
7.12590962513684e-05
0.00012160139734136785
0.0001973701017183125
0.0004026899017701481
0.00030548634536663443
0.00012294556716080894
0.00019568283086266833
0.00012803226473815144
0.00021215872883102418
0.00022398239076028834
0.00019510087044604489
7.120005903781841e-05
0.00013093085664027875
0.00013450150374065347
0.00012518117961663567
7.162378278040411e-05
0.00012257732078620314
7.103168711316803e-05
7.108131553835698e-05
7.120380085991159e-05
7.1226447777487e-05
7.107446497590047e-05
7.231473245270862e-05
7.204828486479806e-05
0.0
0.04834348579229731
0.048546690692001085
0.048542257647253416
0.04854548829757732
0.0485418892324602
0.04854394236962173
0.04854906502143619
0.048542514446778894
0.04854692617520857
0.0485464638862411
0.04854393594859747
0.04854421737716707
0.048543188045002114
0.04854887413697243
0.04854888109002187
0.04855047984884632
0.04855176091503241
0.0485513753074913
0.04854756700991966
0.04854888067874863
0.048548458314408315
0.04854629283514005
0.048549286834784336
0.048550327568693305
0.04854735888914315
0.04854734938548509
0.04855189536404314
0.04854652380918675
0.04854946487852231
0.04854779586370491
0.048548959734108686
0.04855114857519787
0.04854896846833915
0.0485465048613849
0.048549065355215276
0.04854361932198993
0.04854672967777233
0.04854470524239227
0.04854999473908875
0.048545402477653946
0.0485484294874953
0.048546645932138054
0.04854401804017244
0.04854383366927605
0.048545835946854674
0.04855142601223771
0.04854212735981415
0.0485462295640964
0.048542382161232515
0.04854371686880878
0.04854436476304727
7.195450685404079e-05
7.237987202431028e-05
7.27098783243201e-05
7.233023595490318e-05
0.00012890129383230533
0.00013903705347526678
7.175189063170261e-05
0.00012674764049538522
0.00030740840685617896
0.00013956894186564905
0.0002670115551832393
0.0002539060608451938
0.00020292924185206962
0.0004953130035768593
0.0002080192629428372
0.00046831394833798023
0.00024445783140723246
0.00013626615346411838
7.220686685426497e-05
0.00021169296180827455
0.0003425264248434743
0.00031977333805478916
0.0005201359380235577
0.0005125894203852828
0.0005281566680359006
0.00034226144418899056
0.00048061899241411707
0.0004625683070366079
0.0005012574366320221
0.000251839650990853
0.0001602983983804749
7.145577138595145e-05
7.202092473394298e-05
0.00013359291195697346
0.00025572380237375605
0.0004985513148052377
0.0005217229143596584
0.12572306491155832
0.12507137862556736
0.12622484026204223
0.12509970533190365
0.12620190795231565
0.12508279437501585
0.1255848653630344
0.00045427182187190345
0.00047756341397889947
0.00029328294868995576
0.00012642727077170307
0.00013492205975848814
0.00015608504368907371
0.00029219548732492903
0.000514772863343417
0.0004801362836178356
0.1258444124340726
0.1258507782292996
0.12637611899831944
0.12636335193056245
0.12634751621183934
0.12637701951557848
0.1263261382158449